                         Program Version 5.0.4 -  RELEASE  -
|  1> ! UKS TightSCF wB97x-D3 def2-TZVPD xyzfile opt freq
|  2>
|  3> # CF3 radical 119.0 degrees fixed
|  4>
|  5> %maxcore 1000
|  6> %pal
|  7> nprocs 18
|  8> end
|  9>
| 10> %geom Constraints
| 11>         { A * 0 * C }
| 12>     end
| 13> end
| 14> * xyz 0 2
| 15> C 0.00 0.00 0.00
| 16> F 1.3083246069 0.0000000000 -0.1323318667
| 17> F -0.6541623035 1.1330423460 -0.1323318667
| 18> F -0.6541623035 -1.1330423460 -0.1323318667
| 19> **                         ****END OF INPUT****
 Total Charge           Charge          ....    0
 Multiplicity           Mult            ....    2
 Number of Electrons    NEL             ....   33
Dispersion correction           -0.000114447
FINAL SINGLE POINT ENERGY      -337.603928317617
Dispersion correction            ... done
Dispersion correction           -0.000110997
FINAL SINGLE POINT ENERGY      -337.604046178102
Dispersion correction            ... done
Dispersion correction           -0.000110195
FINAL SINGLE POINT ENERGY      -337.604049513595
Dispersion correction            ... done
                    ***********************HURRAY********************

CARTESIAN COORDINATES (ANGSTROEM)
---------------------------------
  C     -0.000159    0.000000   -0.000491
  F      1.302118    0.000000   -0.132179
  F     -0.650979    1.127259   -0.132163
  F     -0.650979   -1.127259   -0.132163

 Multiplicity           Mult            ....    2
 Number of Electrons    NEL             ....   33
 Basis Dimension        Dim             ....  157

ORBITAL ENERGIES
----------------
                 SPIN UP ORBITALS
  NO   OCC          E(Eh)            E(eV)
   0   1.0000     -24.857224      -676.3994
   1   1.0000     -24.857214      -676.3992
   2   1.0000     -24.857065      -676.3951
   3   1.0000     -10.511030      -286.0197
   4   1.0000      -1.459984       -39.7282
   5   1.0000      -1.388946       -37.7951
   6   1.0000      -1.388727       -37.7892
   7   1.0000      -0.833086       -22.6694
   8   1.0000      -0.733751       -19.9664
   9   1.0000      -0.733693       -19.9648
  10   1.0000      -0.697721       -18.9860
  11   1.0000      -0.601094       -16.3566
  12   1.0000      -0.601091       -16.3565
  13   1.0000      -0.589344       -16.0369
  14   1.0000      -0.589275       -16.0350
  15   1.0000      -0.554881       -15.0991
  16   1.0000      -0.293267        -7.9802
  17   0.0000       0.054928         1.4947
  18   0.0000       0.100049         2.7225
  19   0.0000       0.100057         2.7227
  20   0.0000       0.120179         3.2702
  21   0.0000       0.148505         4.0410

                 SPIN DOWN ORBITALS
  NO   OCC          E(Eh)            E(eV)
   0   1.0000     -24.854434      -676.3235
   1   1.0000     -24.854420      -676.3232
   2   1.0000     -24.854277      -676.3193
   3   1.0000     -10.497841      -285.6608
   4   1.0000      -1.448919       -39.4271
   5   1.0000      -1.381638       -37.5963
   6   1.0000      -1.381429       -37.5906
   7   1.0000      -0.811928       -22.0937
   8   1.0000      -0.725958       -19.7543
   9   1.0000      -0.725905       -19.7529
  10   1.0000      -0.659818       -17.9546
  11   1.0000      -0.594691       -16.1824
  12   1.0000      -0.594629       -16.1807
  13   1.0000      -0.572118       -15.5681
  14   1.0000      -0.572009       -15.5652
  15   1.0000      -0.551988       -15.0204
  16   0.0000       0.049359         1.3431
  17   0.0000       0.075246         2.0475
  18   0.0000       0.103544         2.8176
  19   0.0000       0.103551         2.8178
  20   0.0000       0.132449         3.6041

MULLIKEN ATOMIC CHARGES AND SPIN POPULATIONS
--------------------------------------------
   0 C :    0.510512    0.885250
   1 F :   -0.170156    0.038144
   2 F :   -0.170180    0.038304
   3 F :   -0.170176    0.038303
Sum of atomic charges         :   -0.0000000

LOEWDIN ATOMIC CHARGES AND SPIN POPULATIONS
-------------------------------------------
   0 C :   -0.463275    0.615309
   1 F :    0.154008    0.128086
   2 F :    0.154634    0.128303
   3 F :    0.154634    0.128303

  Mayer bond orders larger than 0.100000
B(  0-C ,  1-F ) :   1.0460 B(  0-C ,  2-F ) :   1.0462 B(  0-C ,  3-F ) :   1.0462

Dispersion correction           -0.000110212
FINAL SINGLE POINT ENERGY      -337.604049506081

DIPOLE MOMENT
-------------
                                X             Y             Z
Electronic contribution:     -0.00099      -0.00000      -0.17774
Nuclear contribution   :     -0.00010       0.00000       0.06371
                        -----------------------------------------
Total Dipole Moment    :     -0.00109      -0.00000      -0.11403
                        -----------------------------------------
Magnitude (a.u.)       :      0.11403
Magnitude (Debye)      :      0.28985

Dispersion correction in the Hessian             ... done   (      0.1 sec)

VIBRATIONAL FREQUENCIES
-----------------------

Scaling factor for frequencies =  1.000000000  (already applied!)

   0:         0.00 cm**-1
   1:         0.00 cm**-1
   2:         0.00 cm**-1
   3:         0.00 cm**-1
   4:         0.00 cm**-1
   5:         0.00 cm**-1
   6:      -483.57 cm**-1 ***imaginary mode***
   7:       469.24 cm**-1
   8:       469.52 cm**-1
   9:       916.71 cm**-1
  10:      1402.97 cm**-1
  11:      1404.88 cm**-1

IR SPECTRUM
-----------

 Mode   freq       eps      Int      T**2         TX        TY        TZ
       cm**-1   L/(mol*cm) km/mol    a.u.
----------------------------------------------------------------------------
  7:    469.24   0.000802    4.05  0.000533  (-0.023090 -0.000001  0.000015)
  8:    469.52   0.000796    4.02  0.000529  ( 0.000001 -0.022996 -0.000000)
  9:    916.71   0.000104    0.53  0.000036  (-0.000308 -0.000000  0.005956)
 10:   1402.97   0.067911  343.19  0.015105  ( 0.122904  0.000003  0.000050)
 11:   1404.88   0.068009  343.69  0.015107  ( 0.000003 -0.122910 -0.000000)

--------------------------
THERMOCHEMISTRY AT 298.15K
--------------------------

Temperature         ... 298.15 K
Pressure            ... 1.00 atm
Total Mass          ... 69.00 AMU

Throughout the following assumptions are being made:
  (1) The electronic state is orbitally nondegenerate
      but the spin degeneracy is treated
  (2) There are no thermally accessible electronically excited states
  (3) Hindered rotations indicated by low frequency modes are not
      treated as such but are treated as vibrations and this may
      cause some error
  (4) All equations used are the standard statistical mechanics
      equations for an ideal gas
  (5) All vibrations are strictly harmonic

freq.     469.24  E(vib)   ...       0.16
freq.     469.52  E(vib)   ...       0.16
freq.     916.71  E(vib)   ...       0.03
freq.    1402.97  E(vib)   ...       0.00
freq.    1404.88  E(vib)   ...       0.00

------------
INNER ENERGY
------------

The inner energy is: U= E(el) + E(ZPE) + E(vib) + E(rot) + E(trans)
    E(el)   - is the total energy from the electronic structure calculation
              = E(kin-el) + E(nuc-el) + E(el-el) + E(nuc-nuc)
    E(ZPE)  - the the zero temperature vibrational energy from the frequency calculation
    E(vib)  - the the finite temperature correction to E(ZPE) due to population
              of excited vibrational states
    E(rot)  - is the rotational thermal energy
    E(trans)- is the translational thermal energy

Summary of contributions to the inner energy U:
Electronic energy                ...   -337.60404951 Eh
Zero point energy                ...      0.01062381 Eh       6.67 kcal/mol
Thermal vibrational correction   ...      0.00056088 Eh       0.35 kcal/mol
Thermal rotational correction    ...      0.00141627 Eh       0.89 kcal/mol
Thermal translational correction ...      0.00141627 Eh       0.89 kcal/mol
-----------------------------------------------------------------------
Total thermal energy                   -337.59003227 Eh

Summary of corrections to the electronic energy:
(perhaps to be used in another calculation)
Total thermal correction                  0.00339342 Eh       2.13 kcal/mol
Non-thermal (ZPE) correction              0.01062381 Eh       6.67 kcal/mol
-----------------------------------------------------------------------
Total correction                          0.01401724 Eh       8.80 kcal/mol

--------
ENTHALPY
--------

The enthalpy is H = U + kB*T
                kB is Boltzmann's constant
Total free energy                 ...   -337.59003227 Eh
Thermal Enthalpy correction       ...      0.00094421 Eh       0.59 kcal/mol
-----------------------------------------------------------------------
Total Enthalpy                    ...   -337.58908806 Eh

Note: Rotational entropy computed according to Herzberg
Infrared and Raman Spectra, Chapter V,1, Van Nostrand Reinhold, 1945
Point Group:  Cs, Symmetry Number:   1
Rotational constants in cm-1:     0.347910     0.347688     0.174519

Vibrational entropy computed according to the QRRHO of S. Grimme
Chem.Eur.J. 2012 18 9955

-------
ENTROPY
-------

The entropy contributions are T*S = T*(S(el)+S(vib)+S(rot)+S(trans))
     S(el)   - electronic entropy
     S(vib)  - vibrational entropy
     S(rot)  - rotational entropy
     S(trans)- translational entropy
The entropies will be listed as multiplied by the temperature to get
units of energy

Electronic entropy                ...      0.00065446 Eh      0.41 kcal/mol
Vibrational entropy               ...      0.00078260 Eh      0.49 kcal/mol
Rotational entropy                ...      0.01133213 Eh      7.11 kcal/mol
Translational entropy             ...      0.01834582 Eh     11.51 kcal/mol
-----------------------------------------------------------------------
Final entropy term                ...      0.03111500 Eh     19.52 kcal/mol

In case the symmetry of your molecule has not been determined correctly
or in case you have a reason to use a different symmetry number we print
out the resulting rotational entropy values for sn=1,12 :
 --------------------------------------------------------
|  sn= 1 | S(rot)=       0.01133213 Eh      7.11 kcal/mol|
|  sn= 2 | S(rot)=       0.01067767 Eh      6.70 kcal/mol|
|  sn= 3 | S(rot)=       0.01029484 Eh      6.46 kcal/mol|
|  sn= 4 | S(rot)=       0.01002321 Eh      6.29 kcal/mol|
|  sn= 5 | S(rot)=       0.00981253 Eh      6.16 kcal/mol|
|  sn= 6 | S(rot)=       0.00964038 Eh      6.05 kcal/mol|
|  sn= 7 | S(rot)=       0.00949484 Eh      5.96 kcal/mol|
|  sn= 8 | S(rot)=       0.00936876 Eh      5.88 kcal/mol|
|  sn= 9 | S(rot)=       0.00925755 Eh      5.81 kcal/mol|
|  sn=10 | S(rot)=       0.00915807 Eh      5.75 kcal/mol|
|  sn=11 | S(rot)=       0.00906808 Eh      5.69 kcal/mol|
|  sn=12 | S(rot)=       0.00898593 Eh      5.64 kcal/mol|
 --------------------------------------------------------

-------------------
GIBBS FREE ENERGY
-------------------

The Gibbs free energy is G = H - T*S

Total enthalpy                    ...   -337.58908806 Eh
Total entropy correction          ...     -0.03111500 Eh    -19.52 kcal/mol
-----------------------------------------------------------------------
Final Gibbs free energy         ...   -337.62020306 Eh

For completeness - the Gibbs free energy minus the electronic energy
G-E(el)                           ...     -0.01615355 Eh    -10.14 kcal/mol

                             ****ORCA TERMINATED NORMALLY****
TOTAL RUN TIME: 0 days 0 hours 1 minutes 42 seconds 679 msec
