                         Program Version 5.0.4 -  RELEASE  -
|  1> ! UKS TightSCF wB97x-D3 def2-TZVPD xyzfile opt freq
|  2>
|  3> # CF3 radical 112.5 degrees fixed
|  4>
|  5> %maxcore 1000
|  6> %pal
|  7> nprocs 18
|  8> end
|  9>
| 10> %geom Constraints
| 11>         { A * 0 * C }
| 12>     end
| 13> end
| 14> * xyz 0 2
| 15> C 0.00 0.00 0.00
| 16> F 1.2625294078 0.0000000000 -0.3677560257
| 17> F -0.6312647039 1.0933825402 -0.3677560257
| 18> F -0.6312647039 -1.0933825402 -0.3677560257
| 19> **                         ****END OF INPUT****
 Total Charge           Charge          ....    0
 Multiplicity           Mult            ....    2
 Number of Electrons    NEL             ....   33
Dispersion correction           -0.000087273
FINAL SINGLE POINT ENERGY      -337.632311915154
Dispersion correction            ... done
Dispersion correction           -0.000086556
FINAL SINGLE POINT ENERGY      -337.632320171826
Dispersion correction            ... done
                    ***********************HURRAY********************

CARTESIAN COORDINATES (ANGSTROEM)
---------------------------------
  C      0.000230    0.000000   -0.000363
  F      1.260518    0.000000   -0.367590
  F     -0.630374    1.092181   -0.367657
  F     -0.630374   -1.092181   -0.367657

 Multiplicity           Mult            ....    2
 Number of Electrons    NEL             ....   33
 Basis Dimension        Dim             ....  157

ORBITAL ENERGIES
----------------
                 SPIN UP ORBITALS
  NO   OCC          E(Eh)            E(eV)
   0   1.0000     -24.854707      -676.3310
   1   1.0000     -24.854440      -676.3237
   2   1.0000     -24.854433      -676.3235
   3   1.0000     -10.537706      -286.7455
   4   1.0000      -1.470313       -40.0093
   5   1.0000      -1.385630       -37.7049
   6   1.0000      -1.385324       -37.6966
   7   1.0000      -0.838828       -22.8257
   8   1.0000      -0.734960       -19.9993
   9   1.0000      -0.734873       -19.9969
  10   1.0000      -0.701449       -19.0874
  11   1.0000      -0.607449       -16.5295
  12   1.0000      -0.607438       -16.5292
  13   1.0000      -0.576339       -15.6830
  14   1.0000      -0.576232       -15.6801
  15   1.0000      -0.549365       -14.9490
  16   1.0000      -0.363731        -9.8976
  17   0.0000       0.069090         1.8800
  18   0.0000       0.103339         2.8120
  19   0.0000       0.103352         2.8123
  20   0.0000       0.114990         3.1290
  21   0.0000       0.157438         4.2841

                 SPIN DOWN ORBITALS
  NO   OCC          E(Eh)            E(eV)
   0   1.0000     -24.851698      -676.2491
   1   1.0000     -24.851434      -676.2419
   2   1.0000     -24.851422      -676.2416
   3   1.0000     -10.524889      -286.3968
   4   1.0000      -1.460188       -39.7337
   5   1.0000      -1.377120       -37.4733
   6   1.0000      -1.376815       -37.4650
   7   1.0000      -0.820573       -22.3289
   8   1.0000      -0.724910       -19.7258
   9   1.0000      -0.724826       -19.7235
  10   1.0000      -0.663625       -18.0582
  11   1.0000      -0.596824       -16.2404
  12   1.0000      -0.596784       -16.2393
  13   1.0000      -0.566471       -15.4145
  14   1.0000      -0.566334       -15.4107
  15   1.0000      -0.546111       -14.8604
  16   0.0000      -0.011776        -0.3204
  17   0.0000       0.081565         2.2195
  18   0.0000       0.106832         2.9071
  19   0.0000       0.106848         2.9075
  20   0.0000       0.131531         3.5791

MULLIKEN ATOMIC CHARGES AND SPIN POPULATIONS
--------------------------------------------
   0 C :    0.528432    0.820486
   1 F :   -0.175936    0.059849
   2 F :   -0.176249    0.059833
   3 F :   -0.176247    0.059832
Sum of atomic charges         :   -0.0000000

LOEWDIN ATOMIC CHARGES AND SPIN POPULATIONS
-------------------------------------------
   0 C :   -0.421745    0.613249
   1 F :    0.141187    0.128979
   2 F :    0.140279    0.128886
   3 F :    0.140279    0.128886

  Mayer bond orders larger than 0.100000
B(  0-C ,  1-F ) :   1.0514 B(  0-C ,  2-F ) :   1.0507 B(  0-C ,  3-F ) :   1.0507

Dispersion correction           -0.000086384
FINAL SINGLE POINT ENERGY      -337.632320259960

DIPOLE MOMENT
-------------
                                X             Y             Z
Electronic contribution:      0.00155       0.00000      -0.10609
Nuclear contribution   :      0.00015       0.00000       0.17769
                        -----------------------------------------
Total Dipole Moment    :      0.00170       0.00000       0.07160
                        -----------------------------------------
Magnitude (a.u.)       :      0.07162
Magnitude (Debye)      :      0.18205

Dispersion correction in the Hessian             ... done   (      0.1 sec)

VIBRATIONAL FREQUENCIES
-----------------------

Scaling factor for frequencies =  1.000000000  (already applied!)

   0:         0.00 cm**-1
   1:         0.00 cm**-1
   2:         0.00 cm**-1
   3:         0.00 cm**-1
   4:         0.00 cm**-1
   5:         0.00 cm**-1
   6:       504.57 cm**-1
   7:       504.93 cm**-1
   8:       697.92 cm**-1
   9:      1085.48 cm**-1
  10:      1285.80 cm**-1
  11:      1288.41 cm**-1

IR SPECTRUM
-----------

 Mode   freq       eps      Int      T**2         TX        TY        TZ
       cm**-1   L/(mol*cm) km/mol    a.u.
----------------------------------------------------------------------------
  6:    504.57   0.000308    1.55  0.000190  (-0.013794 -0.000002 -0.000065)
  7:    504.93   0.000303    1.53  0.000187  ( 0.000002 -0.013688  0.000000)
  8:    697.92   0.002391   12.08  0.001069  (-0.000119 -0.000000  0.032696)
  9:   1085.48   0.006910   34.92  0.001987  ( 0.001020  0.000000  0.044559)
 10:   1285.80   0.072762  367.71  0.017659  (-0.000017 -0.132888  0.000000)
 11:   1288.41   0.072784  367.82  0.017629  (-0.132774  0.000017  0.000229)

--------------------------
THERMOCHEMISTRY AT 298.15K
--------------------------

Temperature         ... 298.15 K
Pressure            ... 1.00 atm
Total Mass          ... 69.00 AMU

Throughout the following assumptions are being made:
  (1) The electronic state is orbitally nondegenerate
      but the spin degeneracy is treated
  (2) There are no thermally accessible electronically excited states
  (3) Hindered rotations indicated by low frequency modes are not
      treated as such but are treated as vibrations and this may
      cause some error
  (4) All equations used are the standard statistical mechanics
      equations for an ideal gas
  (5) All vibrations are strictly harmonic

freq.     504.57  E(vib)   ...       0.14
freq.     504.93  E(vib)   ...       0.14
freq.     697.92  E(vib)   ...       0.07
freq.    1085.48  E(vib)   ...       0.02
freq.    1285.80  E(vib)   ...       0.01
freq.    1288.41  E(vib)   ...       0.01

------------
INNER ENERGY
------------

The inner energy is: U= E(el) + E(ZPE) + E(vib) + E(rot) + E(trans)
    E(el)   - is the total energy from the electronic structure calculation
              = E(kin-el) + E(nuc-el) + E(el-el) + E(nuc-nuc)
    E(ZPE)  - the the zero temperature vibrational energy from the frequency calculation
    E(vib)  - the the finite temperature correction to E(ZPE) due to population
              of excited vibrational states
    E(rot)  - is the rotational thermal energy
    E(trans)- is the translational thermal energy

Summary of contributions to the inner energy U:
Electronic energy                ...   -337.63232026 Eh
Zero point energy                ...      0.01222716 Eh       7.67 kcal/mol
Thermal vibrational correction   ...      0.00060477 Eh       0.38 kcal/mol
Thermal rotational correction    ...      0.00141627 Eh       0.89 kcal/mol
Thermal translational correction ...      0.00141627 Eh       0.89 kcal/mol
-----------------------------------------------------------------------
Total thermal energy                   -337.61665579 Eh

Summary of corrections to the electronic energy:
(perhaps to be used in another calculation)
Total thermal correction                  0.00343731 Eh       2.16 kcal/mol
Non-thermal (ZPE) correction              0.01222716 Eh       7.67 kcal/mol
-----------------------------------------------------------------------
Total correction                          0.01566447 Eh       9.83 kcal/mol

--------
ENTHALPY
--------

The enthalpy is H = U + kB*T
                kB is Boltzmann's constant
Total free energy                 ...   -337.61665579 Eh
Thermal Enthalpy correction       ...      0.00094421 Eh       0.59 kcal/mol
-----------------------------------------------------------------------
Total Enthalpy                    ...   -337.61571159 Eh

Note: Rotational entropy computed according to Herzberg
Infrared and Raman Spectra, Chapter V,1, Van Nostrand Reinhold, 1945
Point Group:  Cs, Symmetry Number:   1
Rotational constants in cm-1:     0.361576     0.361271     0.186049

Vibrational entropy computed according to the QRRHO of S. Grimme
Chem.Eur.J. 2012 18 9955

-------
ENTROPY
-------

The entropy contributions are T*S = T*(S(el)+S(vib)+S(rot)+S(trans))
     S(el)   - electronic entropy
     S(vib)  - vibrational entropy
     S(rot)  - rotational entropy
     S(trans)- translational entropy
The entropies will be listed as multiplied by the temperature to get
units of energy

Electronic entropy                ...      0.00065446 Eh      0.41 kcal/mol
Vibrational entropy               ...      0.00082070 Eh      0.51 kcal/mol
Rotational entropy                ...      0.01126564 Eh      7.07 kcal/mol
Translational entropy             ...      0.01834582 Eh     11.51 kcal/mol
-----------------------------------------------------------------------
Final entropy term                ...      0.03108662 Eh     19.51 kcal/mol

In case the symmetry of your molecule has not been determined correctly
or in case you have a reason to use a different symmetry number we print
out the resulting rotational entropy values for sn=1,12 :
 --------------------------------------------------------
|  sn= 1 | S(rot)=       0.01126564 Eh      7.07 kcal/mol|
|  sn= 2 | S(rot)=       0.01061119 Eh      6.66 kcal/mol|
|  sn= 3 | S(rot)=       0.01022835 Eh      6.42 kcal/mol|
|  sn= 4 | S(rot)=       0.00995673 Eh      6.25 kcal/mol|
|  sn= 5 | S(rot)=       0.00974604 Eh      6.12 kcal/mol|
|  sn= 6 | S(rot)=       0.00957390 Eh      6.01 kcal/mol|
|  sn= 7 | S(rot)=       0.00942835 Eh      5.92 kcal/mol|
|  sn= 8 | S(rot)=       0.00930227 Eh      5.84 kcal/mol|
|  sn= 9 | S(rot)=       0.00919106 Eh      5.77 kcal/mol|
|  sn=10 | S(rot)=       0.00909159 Eh      5.71 kcal/mol|
|  sn=11 | S(rot)=       0.00900160 Eh      5.65 kcal/mol|
|  sn=12 | S(rot)=       0.00891944 Eh      5.60 kcal/mol|
 --------------------------------------------------------

-------------------
GIBBS FREE ENERGY
-------------------

The Gibbs free energy is G = H - T*S

Total enthalpy                    ...   -337.61571159 Eh
Total entropy correction          ...     -0.03108662 Eh    -19.51 kcal/mol
-----------------------------------------------------------------------
Final Gibbs free energy         ...   -337.64679820 Eh

For completeness - the Gibbs free energy minus the electronic energy
G-E(el)                           ...     -0.01447794 Eh     -9.09 kcal/mol

                             ****ORCA TERMINATED NORMALLY****
TOTAL RUN TIME: 0 days 0 hours 2 minutes 7 seconds 729 msec
