                         Program Version 5.0.4 -  RELEASE  -
|  1> ! UKS TightSCF wB97x-D3 def2-TZVPD xyzfile opt freq
|  2>
|  3> # CF3 radical 103.0 degrees fixed
|  4>
|  5> %maxcore 1000
|  6> %pal
|  7> nprocs 18
|  8> end
|  9>
| 10> %geom Constraints
| 11>         { A * 0 * C }
| 12>     end
| 13> end
| 14> * xyz 0 2
| 15> C 0.00 0.00 0.00
| 16> F 1.1883366490 0.0000000000 -0.5630994661
| 17> F -0.5941683245 1.0291297263 -0.5630994661
| 18> F -0.5941683245 -1.0291297263 -0.5630994661
| 19> **                         ****END OF INPUT****
 Total Charge           Charge          ....    0
 Multiplicity           Mult            ....    2
 Number of Electrons    NEL             ....   33
Dispersion correction           -0.000054592
FINAL SINGLE POINT ENERGY      -337.612685345499
Dispersion correction            ... done
Dispersion correction           -0.000060603
FINAL SINGLE POINT ENERGY      -337.613932686384
Dispersion correction            ... done
Dispersion correction           -0.000061694
FINAL SINGLE POINT ENERGY      -337.613959703453
Dispersion correction            ... done
                    ***********************HURRAY********************

CARTESIAN COORDINATES (ANGSTROEM)
---------------------------------
  C     -0.000162   -0.000000    0.006641
  F      1.207242   -0.000000   -0.565364
  F     -0.603540    1.045169   -0.565288
  F     -0.603540   -1.045168   -0.565287

 Multiplicity           Mult            ....    2
 Number of Electrons    NEL             ....   33
 Basis Dimension        Dim             ....  157

ORBITAL ENERGIES
----------------
                 SPIN UP ORBITALS
  NO   OCC          E(Eh)            E(eV)
   0   1.0000     -24.844254      -676.0465
   1   1.0000     -24.844250      -676.0464
   2   1.0000     -24.844077      -676.0417
   3   1.0000     -10.557069      -287.2725
   4   1.0000      -1.469049       -39.9749
   5   1.0000      -1.366023       -37.1714
   6   1.0000      -1.365838       -37.1663
   7   1.0000      -0.838676       -22.8215
   8   1.0000      -0.721753       -19.6399
   9   1.0000      -0.721699       -19.6384
  10   1.0000      -0.698794       -19.0151
  11   1.0000      -0.603628       -16.4256
  12   1.0000      -0.603627       -16.4255
  13   1.0000      -0.552148       -15.0247
  14   1.0000      -0.552074       -15.0227
  15   1.0000      -0.532143       -14.4803
  16   1.0000      -0.429006       -11.6738
  17   0.0000       0.072255         1.9662
  18   0.0000       0.104860         2.8534
  19   0.0000       0.104863         2.8535
  20   0.0000       0.112340         3.0569
  21   0.0000       0.160534         4.3683

                 SPIN DOWN ORBITALS
  NO   OCC          E(Eh)            E(eV)
   0   1.0000     -24.841333      -675.9670
   1   1.0000     -24.841325      -675.9668
   2   1.0000     -24.841152      -675.9621
   3   1.0000     -10.544077      -286.9189
   4   1.0000      -1.459862       -39.7249
   5   1.0000      -1.357303       -36.9341
   6   1.0000      -1.357115       -36.9290
   7   1.0000      -0.819377       -22.2964
   8   1.0000      -0.710678       -19.3385
   9   1.0000      -0.710630       -19.3372
  10   1.0000      -0.658907       -17.9298
  11   1.0000      -0.591893       -16.1062
  12   1.0000      -0.591890       -16.1062
  13   1.0000      -0.544528       -14.8174
  14   1.0000      -0.544450       -14.8152
  15   1.0000      -0.528828       -14.3901
  16   0.0000      -0.077363        -2.1052
  17   0.0000       0.082314         2.2399
  18   0.0000       0.108036         2.9398
  19   0.0000       0.108044         2.9400
  20   0.0000       0.126690         3.4474

MULLIKEN ATOMIC CHARGES AND SPIN POPULATIONS
--------------------------------------------
   0 C :    0.542052    0.782421
   1 F :   -0.180810    0.072531
   2 F :   -0.180622    0.072523
   3 F :   -0.180621    0.072524
Sum of atomic charges         :   -0.0000000

LOEWDIN ATOMIC CHARGES AND SPIN POPULATIONS
-------------------------------------------
   0 C :   -0.300471    0.623296
   1 F :    0.099799    0.125561
   2 F :    0.100336    0.125571
   3 F :    0.100336    0.125571

  Mayer bond orders larger than 0.100000
B(  0-C ,  1-F ) :   1.0566 B(  0-C ,  2-F ) :   1.0568 B(  0-C ,  3-F ) :   1.0568

Dispersion correction           -0.000061773
FINAL SINGLE POINT ENERGY      -337.613959572636

DIPOLE MOMENT
-------------
                                X             Y             Z
Electronic contribution:     -0.00104      -0.00000       0.06351
Nuclear contribution   :     -0.00010      -0.00000       0.27672
                        -----------------------------------------
Total Dipole Moment    :     -0.00115      -0.00000       0.34023
                        -----------------------------------------
Magnitude (a.u.)       :      0.34023
Magnitude (Debye)      :      0.86480

Dispersion correction in the Hessian             ... done   (      0.1 sec)

VIBRATIONAL FREQUENCIES
-----------------------

Scaling factor for frequencies =  1.000000000  (already applied!)

   0:         0.00 cm**-1
   1:         0.00 cm**-1
   2:         0.00 cm**-1
   3:         0.00 cm**-1
   4:         0.00 cm**-1
   5:         0.00 cm**-1
   6:       562.67 cm**-1
   7:       562.93 cm**-1
   8:       761.57 cm**-1
   9:      1112.56 cm**-1
  10:      1127.60 cm**-1
  11:      1129.49 cm**-1

IR SPECTRUM
-----------

 Mode   freq       eps      Int      T**2         TX        TY        TZ
       cm**-1   L/(mol*cm) km/mol    a.u.
----------------------------------------------------------------------------
  6:    562.67   0.000294    1.49  0.000163  (-0.012770 -0.000005 -0.000037)
  7:    562.93   0.000294    1.48  0.000163  ( 0.000005 -0.012761 -0.000000)
  8:    761.57   0.002477   12.52  0.001015  ( 0.000107  0.000000  0.031861)
  9:   1112.56   0.009565   48.34  0.002683  (-0.008043 -0.000003  0.051169)
 10:   1127.60   0.063930  323.08  0.017693  (-0.132978  0.000057 -0.003061)
 11:   1129.49   0.064073  323.80  0.017703  ( 0.000057  0.133051  0.000003)

--------------------------
THERMOCHEMISTRY AT 298.15K
--------------------------

Temperature         ... 298.15 K
Pressure            ... 1.00 atm
Total Mass          ... 69.00 AMU

Throughout the following assumptions are being made:
  (1) The electronic state is orbitally nondegenerate
      but the spin degeneracy is treated
  (2) There are no thermally accessible electronically excited states
  (3) Hindered rotations indicated by low frequency modes are not
      treated as such but are treated as vibrations and this may
      cause some error
  (4) All equations used are the standard statistical mechanics
      equations for an ideal gas
  (5) All vibrations are strictly harmonic

freq.     562.67  E(vib)   ...       0.11
freq.     562.93  E(vib)   ...       0.11
freq.     761.57  E(vib)   ...       0.06
freq.    1112.56  E(vib)   ...       0.01
freq.    1127.60  E(vib)   ...       0.01
freq.    1129.49  E(vib)   ...       0.01

------------
INNER ENERGY
------------

The inner energy is: U= E(el) + E(ZPE) + E(vib) + E(rot) + E(trans)
    E(el)   - is the total energy from the electronic structure calculation
              = E(kin-el) + E(nuc-el) + E(el-el) + E(nuc-nuc)
    E(ZPE)  - the the zero temperature vibrational energy from the frequency calculation
    E(vib)  - the the finite temperature correction to E(ZPE) due to population
              of excited vibrational states
    E(rot)  - is the rotational thermal energy
    E(trans)- is the translational thermal energy

Summary of contributions to the inner energy U:
Electronic energy                ...   -337.61395957 Eh
Zero point energy                ...      0.01197593 Eh       7.51 kcal/mol
Thermal vibrational correction   ...      0.00052183 Eh       0.33 kcal/mol
Thermal rotational correction    ...      0.00141627 Eh       0.89 kcal/mol
Thermal translational correction ...      0.00141627 Eh       0.89 kcal/mol
-----------------------------------------------------------------------
Total thermal energy                   -337.59862927 Eh

Summary of corrections to the electronic energy:
(perhaps to be used in another calculation)
Total thermal correction                  0.00335438 Eh       2.10 kcal/mol
Non-thermal (ZPE) correction              0.01197593 Eh       7.51 kcal/mol
-----------------------------------------------------------------------
Total correction                          0.01533031 Eh       9.62 kcal/mol

--------
ENTHALPY
--------

The enthalpy is H = U + kB*T
                kB is Boltzmann's constant
Total free energy                 ...   -337.59862927 Eh
Thermal Enthalpy correction       ...      0.00094421 Eh       0.59 kcal/mol
-----------------------------------------------------------------------
Total Enthalpy                    ...   -337.59768506 Eh

Note: Rotational entropy computed according to Herzberg
Infrared and Raman Spectra, Chapter V,1, Van Nostrand Reinhold, 1945
Point Group:  Cs, Symmetry Number:   1
Rotational constants in cm-1:     0.376697     0.376505     0.203019

Vibrational entropy computed according to the QRRHO of S. Grimme
Chem.Eur.J. 2012 18 9955

-------
ENTROPY
-------

The entropy contributions are T*S = T*(S(el)+S(vib)+S(rot)+S(trans))
     S(el)   - electronic entropy
     S(vib)  - vibrational entropy
     S(rot)  - rotational entropy
     S(trans)- translational entropy
The entropies will be listed as multiplied by the temperature to get
units of energy

Electronic entropy                ...      0.00065446 Eh      0.41 kcal/mol
Vibrational entropy               ...      0.00068858 Eh      0.43 kcal/mol
Rotational entropy                ...      0.01118560 Eh      7.02 kcal/mol
Translational entropy             ...      0.01834582 Eh     11.51 kcal/mol
-----------------------------------------------------------------------
Final entropy term                ...      0.03087445 Eh     19.37 kcal/mol

In case the symmetry of your molecule has not been determined correctly
or in case you have a reason to use a different symmetry number we print
out the resulting rotational entropy values for sn=1,12 :
 --------------------------------------------------------
|  sn= 1 | S(rot)=       0.01118560 Eh      7.02 kcal/mol|
|  sn= 2 | S(rot)=       0.01053114 Eh      6.61 kcal/mol|
|  sn= 3 | S(rot)=       0.01014831 Eh      6.37 kcal/mol|
|  sn= 4 | S(rot)=       0.00987668 Eh      6.20 kcal/mol|
|  sn= 5 | S(rot)=       0.00966599 Eh      6.07 kcal/mol|
|  sn= 6 | S(rot)=       0.00949385 Eh      5.96 kcal/mol|
|  sn= 7 | S(rot)=       0.00934830 Eh      5.87 kcal/mol|
|  sn= 8 | S(rot)=       0.00922223 Eh      5.79 kcal/mol|
|  sn= 9 | S(rot)=       0.00911102 Eh      5.72 kcal/mol|
|  sn=10 | S(rot)=       0.00901154 Eh      5.65 kcal/mol|
|  sn=11 | S(rot)=       0.00892155 Eh      5.60 kcal/mol|
|  sn=12 | S(rot)=       0.00883939 Eh      5.55 kcal/mol|
 --------------------------------------------------------

-------------------
GIBBS FREE ENERGY
-------------------

The Gibbs free energy is G = H - T*S

Total enthalpy                    ...   -337.59768506 Eh
Total entropy correction          ...     -0.03087445 Eh    -19.37 kcal/mol
-----------------------------------------------------------------------
Final Gibbs free energy         ...   -337.62855951 Eh

For completeness - the Gibbs free energy minus the electronic energy
G-E(el)                           ...     -0.01459993 Eh     -9.16 kcal/mol

                             ****ORCA TERMINATED NORMALLY****
TOTAL RUN TIME: 0 days 0 hours 2 minutes 37 seconds 100 msec
