                         Program Version 5.0.4 -  RELEASE  -
|  1> ! UKS TightSCF wB97x-D3 def2-TZVPD xyzfile opt freq
|  2>
|  3> # CF3 radical 117.5 degrees fixed
|  4>
|  5> %maxcore 1000
|  6> %pal
|  7> nprocs 18
|  8> end
|  9>
| 10> %geom Constraints
| 11>         { A * 0 * C }
| 12>     end
| 13> end
| 14> * xyz 0 2
| 15> C 0.00 0.00 0.00
| 16> F 1.2981248645 0.0000000000 -0.2099924670
| 17> F -0.6490624322 1.1242091099 -0.2099924670
| 18> F -0.6490624322 -1.1242091099 -0.2099924670
| 19> **                         ****END OF INPUT****
 Total Charge           Charge          ....    0
 Multiplicity           Mult            ....    2
 Number of Electrons    NEL             ....   33
Dispersion correction           -0.000107889
FINAL SINGLE POINT ENERGY      -337.616432868245
Dispersion correction            ... done
Dispersion correction           -0.000104709
FINAL SINGLE POINT ENERGY      -337.616543963942
Dispersion correction            ... done
Dispersion correction           -0.000103908
FINAL SINGLE POINT ENERGY      -337.616547189439
Dispersion correction            ... done
                    ***********************HURRAY********************

CARTESIAN COORDINATES (ANGSTROEM)
---------------------------------
  C     -0.000278   -0.000000   -0.000768
  F      1.292243   -0.000000   -0.209766
  F     -0.645982    1.118417   -0.209721
  F     -0.645982   -1.118417   -0.209721

 Multiplicity           Mult            ....    2
 Number of Electrons    NEL             ....   33
 Basis Dimension        Dim             ....  157

ORBITAL ENERGIES
----------------
                 SPIN UP ORBITALS
  NO   OCC          E(Eh)            E(eV)
   0   1.0000     -24.857917      -676.4183
   1   1.0000     -24.857908      -676.4181
   2   1.0000     -24.857620      -676.4102
   3   1.0000     -10.521941      -286.3166
   4   1.0000      -1.464725       -39.8572
   5   1.0000      -1.390390       -37.8344
   6   1.0000      -1.390000       -37.8238
   7   1.0000      -0.836142       -22.7526
   8   1.0000      -0.736332       -20.0366
   9   1.0000      -0.736222       -20.0336
  10   1.0000      -0.699793       -19.0423
  11   1.0000      -0.604810       -16.4577
  12   1.0000      -0.604799       -16.4574
  13   1.0000      -0.586821       -15.9682
  14   1.0000      -0.586696       -15.9648
  15   1.0000      -0.555054       -15.1038
  16   1.0000      -0.313852        -8.5403
  17   0.0000       0.061290         1.6678
  18   0.0000       0.100554         2.7362
  19   0.0000       0.100567         2.7366
  20   0.0000       0.118203         3.2165
  21   0.0000       0.154325         4.1994

                 SPIN DOWN ORBITALS
  NO   OCC          E(Eh)            E(eV)
   0   1.0000     -24.854985      -676.3385
   1   1.0000     -24.854972      -676.3382
   2   1.0000     -24.854690      -676.3305
   3   1.0000     -10.509009      -285.9647
   4   1.0000      -1.453904       -39.5627
   5   1.0000      -1.382482       -37.6192
   6   1.0000      -1.382105       -37.6090
   7   1.0000      -0.816628       -22.2216
   8   1.0000      -0.727597       -19.7989
   9   1.0000      -0.727501       -19.7963
  10   1.0000      -0.662492       -18.0273
  11   1.0000      -0.596382       -16.2284
  12   1.0000      -0.596288       -16.2258
  13   1.0000      -0.572998       -15.5921
  14   1.0000      -0.572810       -15.5870
  15   1.0000      -0.551971       -15.0199
  16   0.0000       0.033670         0.9162
  17   0.0000       0.078140         2.1263
  18   0.0000       0.104739         2.8501
  19   0.0000       0.104755         2.8505
  20   0.0000       0.133472         3.6320

MULLIKEN ATOMIC CHARGES AND SPIN POPULATIONS
--------------------------------------------
   0 C :    0.508421    0.860910
   1 F :   -0.169587    0.046278
   2 F :   -0.169417    0.046406
   3 F :   -0.169417    0.046406
Sum of atomic charges         :    0.0000000

LOEWDIN ATOMIC CHARGES AND SPIN POPULATIONS
-------------------------------------------
   0 C :   -0.458683    0.611213
   1 F :    0.152151    0.129437
   2 F :    0.153266    0.129675
   3 F :    0.153266    0.129675

  Mayer bond orders larger than 0.100000
B(  0-C ,  1-F ) :   1.0490 B(  0-C ,  2-F ) :   1.0495 B(  0-C ,  3-F ) :   1.0495

Dispersion correction           -0.000103926
FINAL SINGLE POINT ENERGY      -337.616547139631

DIPOLE MOMENT
-------------
                                X             Y             Z
Electronic contribution:     -0.00184      -0.00000      -0.18753
Nuclear contribution   :     -0.00018      -0.00000       0.10110
                        -----------------------------------------
Total Dipole Moment    :     -0.00201      -0.00000      -0.08642
                        -----------------------------------------
Magnitude (a.u.)       :      0.08645
Magnitude (Debye)      :      0.21973

Dispersion correction in the Hessian             ... done   (      0.1 sec)

VIBRATIONAL FREQUENCIES
-----------------------

Scaling factor for frequencies =  1.000000000  (already applied!)

   0:         0.00 cm**-1
   1:         0.00 cm**-1
   2:         0.00 cm**-1
   3:         0.00 cm**-1
   4:         0.00 cm**-1
   5:         0.00 cm**-1
   6:       474.47 cm**-1
   7:       474.50 cm**-1
   8:       510.26 cm**-1
   9:       967.26 cm**-1
  10:      1364.31 cm**-1
  11:      1367.92 cm**-1

IR SPECTRUM
-----------

 Mode   freq       eps      Int      T**2         TX        TY        TZ
       cm**-1   L/(mol*cm) km/mol    a.u.
----------------------------------------------------------------------------
  6:    474.47   0.000486    2.46  0.000320  (-0.000010 -0.017881  0.000000)
  7:    474.50   0.000487    2.46  0.000320  (-0.017894  0.000010  0.000467)
  8:    510.26   0.001643    8.30  0.001005  (-0.000200 -0.000000 -0.031695)
  9:    967.26   0.001462    7.39  0.000472  (-0.000660 -0.000000  0.021707)
 10:   1364.31   0.072068  364.20  0.016484  ( 0.128392 -0.000010  0.000154)
 11:   1367.92   0.072150  364.62  0.016460  (-0.000010 -0.128295 -0.000000)

--------------------------
THERMOCHEMISTRY AT 298.15K
--------------------------

Temperature         ... 298.15 K
Pressure            ... 1.00 atm
Total Mass          ... 69.00 AMU

Throughout the following assumptions are being made:
  (1) The electronic state is orbitally nondegenerate
      but the spin degeneracy is treated
  (2) There are no thermally accessible electronically excited states
  (3) Hindered rotations indicated by low frequency modes are not
      treated as such but are treated as vibrations and this may
      cause some error
  (4) All equations used are the standard statistical mechanics
      equations for an ideal gas
  (5) All vibrations are strictly harmonic

freq.     474.47  E(vib)   ...       0.15
freq.     474.50  E(vib)   ...       0.15
freq.     510.26  E(vib)   ...       0.14
freq.     967.26  E(vib)   ...       0.03
freq.    1364.31  E(vib)   ...       0.01
freq.    1367.92  E(vib)   ...       0.01

------------
INNER ENERGY
------------

The inner energy is: U= E(el) + E(ZPE) + E(vib) + E(rot) + E(trans)
    E(el)   - is the total energy from the electronic structure calculation
              = E(kin-el) + E(nuc-el) + E(el-el) + E(nuc-nuc)
    E(ZPE)  - the the zero temperature vibrational energy from the frequency calculation
    E(vib)  - the the finite temperature correction to E(ZPE) due to population
              of excited vibrational states
    E(rot)  - is the rotational thermal energy
    E(trans)- is the translational thermal energy

Summary of contributions to the inner energy U:
Electronic energy                ...   -337.61654714 Eh
Zero point energy                ...      0.01175244 Eh       7.37 kcal/mol
Thermal vibrational correction   ...      0.00076291 Eh       0.48 kcal/mol
Thermal rotational correction    ...      0.00141627 Eh       0.89 kcal/mol
Thermal translational correction ...      0.00141627 Eh       0.89 kcal/mol
-----------------------------------------------------------------------
Total thermal energy                   -337.60119925 Eh

Summary of corrections to the electronic energy:
(perhaps to be used in another calculation)
Total thermal correction                  0.00359545 Eh       2.26 kcal/mol
Non-thermal (ZPE) correction              0.01175244 Eh       7.37 kcal/mol
-----------------------------------------------------------------------
Total correction                          0.01534789 Eh       9.63 kcal/mol

--------
ENTHALPY
--------

The enthalpy is H = U + kB*T
                kB is Boltzmann's constant
Total free energy                 ...   -337.60119925 Eh
Thermal Enthalpy correction       ...      0.00094421 Eh       0.59 kcal/mol
-----------------------------------------------------------------------
Total Enthalpy                    ...   -337.60025504 Eh

Note: Rotational entropy computed according to Herzberg
Infrared and Raman Spectra, Chapter V,1, Van Nostrand Reinhold, 1945
Point Group:  Cs, Symmetry Number:   1
Rotational constants in cm-1:     0.351488     0.351104     0.177248

Vibrational entropy computed according to the QRRHO of S. Grimme
Chem.Eur.J. 2012 18 9955

-------
ENTROPY
-------

The entropy contributions are T*S = T*(S(el)+S(vib)+S(rot)+S(trans))
     S(el)   - electronic entropy
     S(vib)  - vibrational entropy
     S(rot)  - rotational entropy
     S(trans)- translational entropy
The entropies will be listed as multiplied by the temperature to get
units of energy

Electronic entropy                ...      0.00065446 Eh      0.41 kcal/mol
Vibrational entropy               ...      0.00106174 Eh      0.67 kcal/mol
Rotational entropy                ...      0.01131536 Eh      7.10 kcal/mol
Translational entropy             ...      0.01834582 Eh     11.51 kcal/mol
-----------------------------------------------------------------------
Final entropy term                ...      0.03137737 Eh     19.69 kcal/mol

In case the symmetry of your molecule has not been determined correctly
or in case you have a reason to use a different symmetry number we print
out the resulting rotational entropy values for sn=1,12 :
 --------------------------------------------------------
|  sn= 1 | S(rot)=       0.01131536 Eh      7.10 kcal/mol|
|  sn= 2 | S(rot)=       0.01066090 Eh      6.69 kcal/mol|
|  sn= 3 | S(rot)=       0.01027807 Eh      6.45 kcal/mol|
|  sn= 4 | S(rot)=       0.01000644 Eh      6.28 kcal/mol|
|  sn= 5 | S(rot)=       0.00979576 Eh      6.15 kcal/mol|
|  sn= 6 | S(rot)=       0.00962361 Eh      6.04 kcal/mol|
|  sn= 7 | S(rot)=       0.00947806 Eh      5.95 kcal/mol|
|  sn= 8 | S(rot)=       0.00935199 Eh      5.87 kcal/mol|
|  sn= 9 | S(rot)=       0.00924078 Eh      5.80 kcal/mol|
|  sn=10 | S(rot)=       0.00914130 Eh      5.74 kcal/mol|
|  sn=11 | S(rot)=       0.00905131 Eh      5.68 kcal/mol|
|  sn=12 | S(rot)=       0.00896915 Eh      5.63 kcal/mol|
 --------------------------------------------------------

-------------------
GIBBS FREE ENERGY
-------------------

The Gibbs free energy is G = H - T*S

Total enthalpy                    ...   -337.60025504 Eh
Total entropy correction          ...     -0.03137737 Eh    -19.69 kcal/mol
-----------------------------------------------------------------------
Final Gibbs free energy         ...   -337.63163241 Eh

For completeness - the Gibbs free energy minus the electronic energy
G-E(el)                           ...     -0.01508527 Eh     -9.47 kcal/mol

                             ****ORCA TERMINATED NORMALLY****
TOTAL RUN TIME: 0 days 0 hours 1 minutes 37 seconds 980 msec
