                         Program Version 5.0.4 -  RELEASE  -
|  1> ! UKS TightSCF wB97x-D3 def2-TZVPD xyzfile opt freq
|  2>
|  3> # CF3 radical 100.0 degrees fixed
|  4>
|  5> %maxcore 1000
|  6> %pal
|  7> nprocs 18
|  8> end
|  9>
| 10> %geom Constraints
| 11>         { A * 0 * C }
| 12>     end
| 13> end
| 14> * xyz 0 2
| 15> C 0.00 0.00 0.00
| 16> F 1.1631857891 0.0000000000 -0.6133708666
| 17> F -0.5815928946 1.0073484427 -0.6133708666
| 18> F -0.5815928946 -1.0073484427 -0.6133708666
| 19> **                         ****END OF INPUT****
 Total Charge           Charge          ....    0
 Multiplicity           Mult            ....    2
 Number of Electrons    NEL             ....   33
Dispersion correction           -0.000046219
FINAL SINGLE POINT ENERGY      -337.596484742391
Dispersion correction            ... done
Dispersion correction           -0.000054304
FINAL SINGLE POINT ENERGY      -337.599404548419
Dispersion correction            ... done
Dispersion correction           -0.000055655
FINAL SINGLE POINT ENERGY      -337.599457611090
Dispersion correction            ... done
Dispersion correction           -0.000055807
FINAL SINGLE POINT ENERGY      -337.599457369326
Dispersion correction            ... done
                    ***********************HURRAY********************

CARTESIAN COORDINATES (ANGSTROEM)
---------------------------------
  C     -0.000049    0.000000    0.011046
  F      1.191179    0.000000   -0.617070
  F     -0.595565    1.031495   -0.617044
  F     -0.595565   -1.031495   -0.617044

 Multiplicity           Mult            ....    2
 Number of Electrons    NEL             ....   33
 Basis Dimension        Dim             ....  157

ORBITAL ENERGIES
----------------
                 SPIN UP ORBITALS
  NO   OCC          E(Eh)            E(eV)
   0   1.0000     -24.840531      -675.9452
   1   1.0000     -24.840529      -675.9451
   2   1.0000     -24.840479      -675.9438
   3   1.0000     -10.563445      -287.4460
   4   1.0000      -1.466555       -39.9070
   5   1.0000      -1.358188       -36.9582
   6   1.0000      -1.358133       -36.9567
   7   1.0000      -0.838341       -22.8124
   8   1.0000      -0.715893       -19.4804
   9   1.0000      -0.715871       -19.4798
  10   1.0000      -0.697069       -18.9682
  11   1.0000      -0.601367       -16.3640
  12   1.0000      -0.601362       -16.3639
  13   1.0000      -0.543532       -14.7903
  14   1.0000      -0.543509       -14.7896
  15   1.0000      -0.525793       -14.3076
  16   1.0000      -0.446001       -12.1363
  17   0.0000       0.072332         1.9683
  18   0.0000       0.103785         2.8241
  19   0.0000       0.103785         2.8241
  20   0.0000       0.111932         3.0458
  21   0.0000       0.158129         4.3029

                 SPIN DOWN ORBITALS
  NO   OCC          E(Eh)            E(eV)
   0   1.0000     -24.837637      -675.8665
   1   1.0000     -24.837630      -675.8663
   2   1.0000     -24.837581      -675.8649
   3   1.0000     -10.550403      -287.0911
   4   1.0000      -1.457566       -39.6624
   5   1.0000      -1.349424       -36.7197
   6   1.0000      -1.349368       -36.7182
   7   1.0000      -0.818219       -22.2649
   8   1.0000      -0.704595       -19.1730
   9   1.0000      -0.704575       -19.1725
  10   1.0000      -0.656645       -17.8682
  11   1.0000      -0.589380       -16.0378
  12   1.0000      -0.589374       -16.0377
  13   1.0000      -0.536288       -14.5931
  14   1.0000      -0.536264       -14.5925
  15   1.0000      -0.522454       -14.2167
  16   0.0000      -0.095373        -2.5952
  17   0.0000       0.082231         2.2376
  18   0.0000       0.107634         2.9289
  19   0.0000       0.107636         2.9289
  20   0.0000       0.125298         3.4095

MULLIKEN ATOMIC CHARGES AND SPIN POPULATIONS
--------------------------------------------
   0 C :    0.539098    0.772416
   1 F :   -0.179705    0.075895
   2 F :   -0.179696    0.075844
   3 F :   -0.179697    0.075844
Sum of atomic charges         :   -0.0000000

LOEWDIN ATOMIC CHARGES AND SPIN POPULATIONS
-------------------------------------------
   0 C :   -0.249556    0.625682
   1 F :    0.083083    0.124787
   2 F :    0.083237    0.124766
   3 F :    0.083236    0.124766

  Mayer bond orders larger than 0.100000
B(  0-C ,  1-F ) :   1.0588 B(  0-C ,  2-F ) :   1.0587 B(  0-C ,  3-F ) :   1.0587

Dispersion correction           -0.000055809
FINAL SINGLE POINT ENERGY      -337.599457537701

DIPOLE MOMENT
-------------
                                X             Y             Z
Electronic contribution:     -0.00033       0.00000       0.11471
Nuclear contribution   :     -0.00003       0.00000       0.30388
                        -----------------------------------------
Total Dipole Moment    :     -0.00036       0.00000       0.41860
                        -----------------------------------------
Magnitude (a.u.)       :      0.41860
Magnitude (Debye)      :      1.06400

Dispersion correction in the Hessian             ... done   (      0.1 sec)

VIBRATIONAL FREQUENCIES
-----------------------

Scaling factor for frequencies =  1.000000000  (already applied!)

   0:         0.00 cm**-1
   1:         0.00 cm**-1
   2:         0.00 cm**-1
   3:         0.00 cm**-1
   4:         0.00 cm**-1
   5:         0.00 cm**-1
   6:       579.90 cm**-1
   7:       580.89 cm**-1
   8:       779.63 cm**-1
   9:      1068.29 cm**-1
  10:      1068.82 cm**-1
  11:      1095.02 cm**-1

IR SPECTRUM
-----------

 Mode   freq       eps      Int      T**2         TX        TY        TZ
       cm**-1   L/(mol*cm) km/mol    a.u.
----------------------------------------------------------------------------
  6:    579.90   0.000296    1.50  0.000159  (-0.012624  0.000000 -0.000081)
  7:    580.89   0.000291    1.47  0.000156  (-0.000000 -0.012506 -0.000000)
  8:    779.63   0.002646   13.37  0.001059  ( 0.000099  0.000000  0.032542)
  9:   1068.29   0.060744  306.97  0.017744  (-0.133205 -0.000117  0.000739)
 10:   1068.82   0.060716  306.83  0.017727  ( 0.000117 -0.133143 -0.000001)
 11:   1095.02   0.009260   46.80  0.002639  (-0.001831  0.000001 -0.051338)

--------------------------
THERMOCHEMISTRY AT 298.15K
--------------------------

Temperature         ... 298.15 K
Pressure            ... 1.00 atm
Total Mass          ... 69.00 AMU

Throughout the following assumptions are being made:
  (1) The electronic state is orbitally nondegenerate
      but the spin degeneracy is treated
  (2) There are no thermally accessible electronically excited states
  (3) Hindered rotations indicated by low frequency modes are not
      treated as such but are treated as vibrations and this may
      cause some error
  (4) All equations used are the standard statistical mechanics
      equations for an ideal gas
  (5) All vibrations are strictly harmonic

freq.     579.90  E(vib)   ...       0.11
freq.     580.89  E(vib)   ...       0.11
freq.     779.63  E(vib)   ...       0.05
freq.    1068.29  E(vib)   ...       0.02
freq.    1068.82  E(vib)   ...       0.02
freq.    1095.02  E(vib)   ...       0.02

------------
INNER ENERGY
------------

The inner energy is: U= E(el) + E(ZPE) + E(vib) + E(rot) + E(trans)
    E(el)   - is the total energy from the electronic structure calculation
              = E(kin-el) + E(nuc-el) + E(el-el) + E(nuc-nuc)
    E(ZPE)  - the the zero temperature vibrational energy from the frequency calculation
    E(vib)  - the the finite temperature correction to E(ZPE) due to population
              of excited vibrational states
    E(rot)  - is the rotational thermal energy
    E(trans)- is the translational thermal energy

Summary of contributions to the inner energy U:
Electronic energy                ...   -337.59945754 Eh
Zero point energy                ...      0.01178396 Eh       7.39 kcal/mol
Thermal vibrational correction   ...      0.00050855 Eh       0.32 kcal/mol
Thermal rotational correction    ...      0.00141627 Eh       0.89 kcal/mol
Thermal translational correction ...      0.00141627 Eh       0.89 kcal/mol
-----------------------------------------------------------------------
Total thermal energy                   -337.58433249 Eh

Summary of corrections to the electronic energy:
(perhaps to be used in another calculation)
Total thermal correction                  0.00334109 Eh       2.10 kcal/mol
Non-thermal (ZPE) correction              0.01178396 Eh       7.39 kcal/mol
-----------------------------------------------------------------------
Total correction                          0.01512504 Eh       9.49 kcal/mol

--------
ENTHALPY
--------

The enthalpy is H = U + kB*T
                kB is Boltzmann's constant
Total free energy                 ...   -337.58433249 Eh
Thermal Enthalpy correction       ...      0.00094421 Eh       0.59 kcal/mol
-----------------------------------------------------------------------
Total Enthalpy                    ...   -337.58338828 Eh

Note: Rotational entropy computed according to Herzberg
Infrared and Raman Spectra, Chapter V,1, Van Nostrand Reinhold, 1945
Point Group:  Cs, Symmetry Number:   1
Rotational constants in cm-1:     0.380184     0.380129     0.208478

Vibrational entropy computed according to the QRRHO of S. Grimme
Chem.Eur.J. 2012 18 9955

-------
ENTROPY
-------

The entropy contributions are T*S = T*(S(el)+S(vib)+S(rot)+S(trans))
     S(el)   - electronic entropy
     S(vib)  - vibrational entropy
     S(rot)  - rotational entropy
     S(trans)- translational entropy
The entropies will be listed as multiplied by the temperature to get
units of energy

Electronic entropy                ...      0.00065446 Eh      0.41 kcal/mol
Vibrational entropy               ...      0.00066546 Eh      0.42 kcal/mol
Rotational entropy                ...      0.01116420 Eh      7.01 kcal/mol
Translational entropy             ...      0.01834582 Eh     11.51 kcal/mol
-----------------------------------------------------------------------
Final entropy term                ...      0.03082994 Eh     19.35 kcal/mol

In case the symmetry of your molecule has not been determined correctly
or in case you have a reason to use a different symmetry number we print
out the resulting rotational entropy values for sn=1,12 :
 --------------------------------------------------------
|  sn= 1 | S(rot)=       0.01116420 Eh      7.01 kcal/mol|
|  sn= 2 | S(rot)=       0.01050974 Eh      6.59 kcal/mol|
|  sn= 3 | S(rot)=       0.01012691 Eh      6.35 kcal/mol|
|  sn= 4 | S(rot)=       0.00985528 Eh      6.18 kcal/mol|
|  sn= 5 | S(rot)=       0.00964460 Eh      6.05 kcal/mol|
|  sn= 6 | S(rot)=       0.00947245 Eh      5.94 kcal/mol|
|  sn= 7 | S(rot)=       0.00932691 Eh      5.85 kcal/mol|
|  sn= 8 | S(rot)=       0.00920083 Eh      5.77 kcal/mol|
|  sn= 9 | S(rot)=       0.00908962 Eh      5.70 kcal/mol|
|  sn=10 | S(rot)=       0.00899014 Eh      5.64 kcal/mol|
|  sn=11 | S(rot)=       0.00890015 Eh      5.58 kcal/mol|
|  sn=12 | S(rot)=       0.00881800 Eh      5.53 kcal/mol|
 --------------------------------------------------------

-------------------
GIBBS FREE ENERGY
-------------------

The Gibbs free energy is G = H - T*S

Total enthalpy                    ...   -337.58338828 Eh
Total entropy correction          ...     -0.03082994 Eh    -19.35 kcal/mol
-----------------------------------------------------------------------
Final Gibbs free energy         ...   -337.61421822 Eh

For completeness - the Gibbs free energy minus the electronic energy
G-E(el)                           ...     -0.01476068 Eh     -9.26 kcal/mol

                             ****ORCA TERMINATED NORMALLY****
TOTAL RUN TIME: 0 days 0 hours 2 minutes 47 seconds 496 msec
