                         Program Version 5.0.4 -  RELEASE  -
|  1> ! UKS TightSCF wB97x-D3 def2-TZVPD xyzfile opt freq
|  2>
|  3> # CF3 radical 96.5 degrees fixed
|  4>
|  5> %maxcore 1000
|  6> %pal
|  7> nprocs 18
|  8> end
|  9>
| 10> %geom Constraints
| 11>         { A * 0 * C }
| 12>     end
| 13> end
| 14> * xyz 0 2
| 15> C 0.00 0.00 0.00
| 16> F 1.1328368012 0.0000000000 -0.6677617702
| 17> F -0.5664184006 0.9810654482 -0.6677617702
| 18> F -0.5664184006 -0.9810654482 -0.6677617702
| 19> **                         ****END OF INPUT****
 Total Charge           Charge          ....    0
 Multiplicity           Mult            ....    2
 Number of Electrons    NEL             ....   33
Dispersion correction           -0.000037634
FINAL SINGLE POINT ENERGY      -337.571256556289
Dispersion correction            ... done
Dispersion correction           -0.000047857
FINAL SINGLE POINT ENERGY      -337.577734100429
Dispersion correction            ... done
Dispersion correction           -0.000049444
FINAL SINGLE POINT ENERGY      -337.577839866112
Dispersion correction            ... done
Dispersion correction           -0.000049710
FINAL SINGLE POINT ENERGY      -337.577840660316
Dispersion correction            ... done
                    ***********************HURRAY********************

CARTESIAN COORDINATES (ANGSTROEM)
---------------------------------
  C      0.000069   -0.000000    0.017810
  F      1.173036   -0.000000   -0.673672
  F     -0.586552    1.016009   -0.673712
  F     -0.586552   -1.016009   -0.673712

 Multiplicity           Mult            ....    2
 Number of Electrons    NEL             ....   33
 Basis Dimension        Dim             ....  157

ORBITAL ENERGIES
----------------
                 SPIN UP ORBITALS
  NO   OCC          E(Eh)            E(eV)
   0   1.0000     -24.836083      -675.8242
   1   1.0000     -24.836009      -675.8222
   2   1.0000     -24.836007      -675.8221
   3   1.0000     -10.571261      -287.6586
   4   1.0000      -1.462487       -39.7963
   5   1.0000      -1.348407       -36.6920
   6   1.0000      -1.348345       -36.6903
   7   1.0000      -0.837936       -22.8014
   8   1.0000      -0.708170       -19.2703
   9   1.0000      -0.708165       -19.2701
  10   1.0000      -0.694639       -18.9021
  11   1.0000      -0.598282       -16.2801
  12   1.0000      -0.598275       -16.2799
  13   1.0000      -0.532996       -14.5036
  14   1.0000      -0.532973       -14.5029
  15   1.0000      -0.517953       -14.0942
  16   1.0000      -0.464371       -12.6362
  17   0.0000       0.072137         1.9630
  18   0.0000       0.100665         2.7392
  19   0.0000       0.100672         2.7394
  20   0.0000       0.111565         3.0358
  21   0.0000       0.151120         4.1122

                 SPIN DOWN ORBITALS
  NO   OCC          E(Eh)            E(eV)
   0   1.0000     -24.833208      -675.7459
   1   1.0000     -24.833137      -675.7440
   2   1.0000     -24.833129      -675.7438
   3   1.0000     -10.558183      -287.3028
   4   1.0000      -1.453668       -39.5563
   5   1.0000      -1.339576       -36.4517
   6   1.0000      -1.339511       -36.4500
   7   1.0000      -0.816565       -22.2199
   8   1.0000      -0.696642       -18.9566
   9   1.0000      -0.696636       -18.9564
  10   1.0000      -0.653728       -17.7888
  11   1.0000      -0.585957       -15.9447
  12   1.0000      -0.585954       -15.9446
  13   1.0000      -0.526105       -14.3160
  14   1.0000      -0.526082       -14.3154
  15   1.0000      -0.514571       -14.0022
  16   0.0000      -0.115382        -3.1397
  17   0.0000       0.082033         2.2322
  18   0.0000       0.106401         2.8953
  19   0.0000       0.106402         2.8953
  20   0.0000       0.123715         3.3665

MULLIKEN ATOMIC CHARGES AND SPIN POPULATIONS
--------------------------------------------
   0 C :    0.532281    0.760757
   1 F :   -0.177200    0.079799
   2 F :   -0.177540    0.079722
   3 F :   -0.177542    0.079722
Sum of atomic charges         :   -0.0000000

LOEWDIN ATOMIC CHARGES AND SPIN POPULATIONS
-------------------------------------------
   0 C :   -0.183290    0.627612
   1 F :    0.061228    0.124149
   2 F :    0.061031    0.124120
   3 F :    0.061031    0.124120

  Mayer bond orders larger than 0.100000
B(  0-C ,  1-F ) :   1.0602 B(  0-C ,  2-F ) :   1.0597 B(  0-C ,  3-F ) :   1.0597

Dispersion correction           -0.000049715
FINAL SINGLE POINT ENERGY      -337.577840637553

DIPOLE MOMENT
-------------
                                X             Y             Z
Electronic contribution:      0.00038      -0.00000       0.17322
Nuclear contribution   :      0.00004      -0.00000       0.33456
                        -----------------------------------------
Total Dipole Moment    :      0.00042      -0.00000       0.50778
                        -----------------------------------------
Magnitude (a.u.)       :      0.50778
Magnitude (Debye)      :      1.29068

Dispersion correction in the Hessian             ... done   (      0.1 sec)

VIBRATIONAL FREQUENCIES
-----------------------

Scaling factor for frequencies =  1.000000000  (already applied!)

   0:         0.00 cm**-1
   1:         0.00 cm**-1
   2:         0.00 cm**-1
   3:         0.00 cm**-1
   4:         0.00 cm**-1
   5:         0.00 cm**-1
   6:       600.22 cm**-1
   7:       601.02 cm**-1
   8:       800.09 cm**-1
   9:       992.09 cm**-1
  10:       992.90 cm**-1
  11:      1062.36 cm**-1

IR SPECTRUM
-----------

 Mode   freq       eps      Int      T**2         TX        TY        TZ
       cm**-1   L/(mol*cm) km/mol    a.u.
----------------------------------------------------------------------------
  6:    600.22   0.000297    1.50  0.000154  (-0.012422  0.000002 -0.000005)
  7:    601.02   0.000293    1.48  0.000152  ( 0.000002  0.012336  0.000000)
  8:    800.09   0.003059   15.46  0.001193  ( 0.000134 -0.000000  0.034543)
  9:    992.09   0.056656  286.32  0.017821  ( 0.000042 -0.133497  0.000000)
 10:    992.90   0.056696  286.52  0.017819  (-0.133488 -0.000041 -0.000134)
 11:   1062.36   0.008594   43.43  0.002524  (-0.000453  0.000000  0.050240)

--------------------------
THERMOCHEMISTRY AT 298.15K
--------------------------

Temperature         ... 298.15 K
Pressure            ... 1.00 atm
Total Mass          ... 69.00 AMU

Throughout the following assumptions are being made:
  (1) The electronic state is orbitally nondegenerate
      but the spin degeneracy is treated
  (2) There are no thermally accessible electronically excited states
  (3) Hindered rotations indicated by low frequency modes are not
      treated as such but are treated as vibrations and this may
      cause some error
  (4) All equations used are the standard statistical mechanics
      equations for an ideal gas
  (5) All vibrations are strictly harmonic

freq.     600.22  E(vib)   ...       0.10
freq.     601.02  E(vib)   ...       0.10
freq.     800.09  E(vib)   ...       0.05
freq.     992.09  E(vib)   ...       0.02
freq.     992.90  E(vib)   ...       0.02
freq.    1062.36  E(vib)   ...       0.02

------------
INNER ENERGY
------------

The inner energy is: U= E(el) + E(ZPE) + E(vib) + E(rot) + E(trans)
    E(el)   - is the total energy from the electronic structure calculation
              = E(kin-el) + E(nuc-el) + E(el-el) + E(nuc-nuc)
    E(ZPE)  - the the zero temperature vibrational energy from the frequency calculation
    E(vib)  - the the finite temperature correction to E(ZPE) due to population
              of excited vibrational states
    E(rot)  - is the rotational thermal energy
    E(trans)- is the translational thermal energy

Summary of contributions to the inner energy U:
Electronic energy                ...   -337.57784064 Eh
Zero point energy                ...      0.01150174 Eh       7.22 kcal/mol
Thermal vibrational correction   ...      0.00050241 Eh       0.32 kcal/mol
Thermal rotational correction    ...      0.00141627 Eh       0.89 kcal/mol
Thermal translational correction ...      0.00141627 Eh       0.89 kcal/mol
-----------------------------------------------------------------------
Total thermal energy                   -337.56300394 Eh

Summary of corrections to the electronic energy:
(perhaps to be used in another calculation)
Total thermal correction                  0.00333496 Eh       2.09 kcal/mol
Non-thermal (ZPE) correction              0.01150174 Eh       7.22 kcal/mol
-----------------------------------------------------------------------
Total correction                          0.01483670 Eh       9.31 kcal/mol

--------
ENTHALPY
--------

The enthalpy is H = U + kB*T
                kB is Boltzmann's constant
Total free energy                 ...   -337.56300394 Eh
Thermal Enthalpy correction       ...      0.00094421 Eh       0.59 kcal/mol
-----------------------------------------------------------------------
Total Enthalpy                    ...   -337.56205973 Eh

Note: Rotational entropy computed according to Herzberg
Infrared and Raman Spectra, Chapter V,1, Van Nostrand Reinhold, 1945
Point Group:  Cs, Symmetry Number:   1
Rotational constants in cm-1:     0.383498     0.383424     0.214922

Vibrational entropy computed according to the QRRHO of S. Grimme
Chem.Eur.J. 2012 18 9955

-------
ENTROPY
-------

The entropy contributions are T*S = T*(S(el)+S(vib)+S(rot)+S(trans))
     S(el)   - electronic entropy
     S(vib)  - vibrational entropy
     S(rot)  - rotational entropy
     S(trans)- translational entropy
The entropies will be listed as multiplied by the temperature to get
units of energy

Electronic entropy                ...      0.00065446 Eh      0.41 kcal/mol
Vibrational entropy               ...      0.00065152 Eh      0.41 kcal/mol
Rotational entropy                ...      0.01114165 Eh      6.99 kcal/mol
Translational entropy             ...      0.01834582 Eh     11.51 kcal/mol
-----------------------------------------------------------------------
Final entropy term                ...      0.03079345 Eh     19.32 kcal/mol

In case the symmetry of your molecule has not been determined correctly
or in case you have a reason to use a different symmetry number we print
out the resulting rotational entropy values for sn=1,12 :
 --------------------------------------------------------
|  sn= 1 | S(rot)=       0.01114165 Eh      6.99 kcal/mol|
|  sn= 2 | S(rot)=       0.01048720 Eh      6.58 kcal/mol|
|  sn= 3 | S(rot)=       0.01010436 Eh      6.34 kcal/mol|
|  sn= 4 | S(rot)=       0.00983274 Eh      6.17 kcal/mol|
|  sn= 5 | S(rot)=       0.00962205 Eh      6.04 kcal/mol|
|  sn= 6 | S(rot)=       0.00944991 Eh      5.93 kcal/mol|
|  sn= 7 | S(rot)=       0.00930436 Eh      5.84 kcal/mol|
|  sn= 8 | S(rot)=       0.00917828 Eh      5.76 kcal/mol|
|  sn= 9 | S(rot)=       0.00906708 Eh      5.69 kcal/mol|
|  sn=10 | S(rot)=       0.00896760 Eh      5.63 kcal/mol|
|  sn=11 | S(rot)=       0.00887761 Eh      5.57 kcal/mol|
|  sn=12 | S(rot)=       0.00879545 Eh      5.52 kcal/mol|
 --------------------------------------------------------

-------------------
GIBBS FREE ENERGY
-------------------

The Gibbs free energy is G = H - T*S

Total enthalpy                    ...   -337.56205973 Eh
Total entropy correction          ...     -0.03079345 Eh    -19.32 kcal/mol
-----------------------------------------------------------------------
Final Gibbs free energy         ...   -337.59285318 Eh

For completeness - the Gibbs free energy minus the electronic energy
G-E(el)                           ...     -0.01501255 Eh     -9.42 kcal/mol

                             ****ORCA TERMINATED NORMALLY****
TOTAL RUN TIME: 0 days 0 hours 1 minutes 59 seconds 824 msec
