                         Program Version 5.0.4 -  RELEASE  -
|  1> ! UKS TightSCF wB97x-D3 def2-TZVPD xyzfile opt freq
|  2>
|  3> # CF3 radical 104.5 degrees fixed
|  4>
|  5> %maxcore 1000
|  6> %pal
|  7> nprocs 18
|  8> end
|  9>
| 10> %geom Constraints
| 11>         { A * 0 * C }
| 12>     end
| 13> end
| 14> * xyz 0 2
| 15> C 0.00 0.00 0.00
| 16> F 1.2006077246 0.0000000000 -0.5364383391
| 17> F -0.6003038623 1.0397567895 -0.5364383391
| 18> F -0.6003038623 -1.0397567895 -0.5364383391
| 19> **                         ****END OF INPUT****
 Total Charge           Charge          ....    0
 Multiplicity           Mult            ....    2
 Number of Electrons    NEL             ....   33
Dispersion correction           -0.000059134
FINAL SINGLE POINT ENERGY      -337.619013866729
Dispersion correction            ... done
Dispersion correction           -0.000064050
FINAL SINGLE POINT ENERGY      -337.619754623640
Dispersion correction            ... done
Dispersion correction           -0.000064984
FINAL SINGLE POINT ENERGY      -337.619772792402
Dispersion correction            ... done
                    ***********************HURRAY********************

CARTESIAN COORDINATES (ANGSTROEM)
---------------------------------
  C     -0.000165    0.000000    0.004870
  F      1.215370    0.000000   -0.538111
  F     -0.607602    1.052193   -0.538037
  F     -0.607602   -1.052193   -0.538037

 Multiplicity           Mult            ....    2
 Number of Electrons    NEL             ....   33
 Basis Dimension        Dim             ....  157

ORBITAL ENERGIES
----------------
                 SPIN UP ORBITALS
  NO   OCC          E(Eh)            E(eV)
   0   1.0000     -24.846036      -676.0950
   1   1.0000     -24.846032      -676.0949
   2   1.0000     -24.845852      -676.0900
   3   1.0000     -10.553982      -287.1885
   4   1.0000      -1.469954       -39.9995
   5   1.0000      -1.369674       -37.2707
   6   1.0000      -1.369479       -37.2654
   7   1.0000      -0.838823       -22.8255
   8   1.0000      -0.724405       -19.7121
   9   1.0000      -0.724349       -19.7105
  10   1.0000      -0.699526       -19.0351
  11   1.0000      -0.604611       -16.4523
  12   1.0000      -0.604608       -16.4522
  13   1.0000      -0.556284       -15.1373
  14   1.0000      -0.556205       -15.1351
  15   1.0000      -0.535176       -14.5629
  16   1.0000      -0.420003       -11.4289
  17   0.0000       0.072107         1.9621
  18   0.0000       0.105044         2.8584
  19   0.0000       0.105049         2.8585
  20   0.0000       0.112595         3.0639
  21   0.0000       0.160801         4.3756

                 SPIN DOWN ORBITALS
  NO   OCC          E(Eh)            E(eV)
   0   1.0000     -24.843101      -676.0151
   1   1.0000     -24.843092      -676.0149
   2   1.0000     -24.842913      -676.0100
   3   1.0000     -10.541020      -286.8357
   4   1.0000      -1.460650       -39.7463
   5   1.0000      -1.360973       -37.0340
   6   1.0000      -1.360776       -37.0286
   7   1.0000      -0.819852       -22.3093
   8   1.0000      -0.713452       -19.4140
   9   1.0000      -0.713404       -19.4127
  10   1.0000      -0.659940       -17.9579
  11   1.0000      -0.592998       -16.1363
  12   1.0000      -0.592996       -16.1363
  13   1.0000      -0.548441       -14.9238
  14   1.0000      -0.548356       -14.9215
  15   1.0000      -0.531871       -14.4729
  16   0.0000      -0.067993        -1.8502
  17   0.0000       0.082319         2.2400
  18   0.0000       0.108076         2.9409
  19   0.0000       0.108084         2.9411
  20   0.0000       0.127407         3.4669

MULLIKEN ATOMIC CHARGES AND SPIN POPULATIONS
--------------------------------------------
   0 C :    0.542404    0.787573
   1 F :   -0.180917    0.070806
   2 F :   -0.180743    0.070811
   3 F :   -0.180744    0.070810
Sum of atomic charges         :   -0.0000000

LOEWDIN ATOMIC CHARGES AND SPIN POPULATIONS
-------------------------------------------
   0 C :   -0.323806    0.621898
   1 F :    0.107559    0.126024
   2 F :    0.108124    0.126039
   3 F :    0.108124    0.126039

  Mayer bond orders larger than 0.100000
B(  0-C ,  1-F ) :   1.0554 B(  0-C ,  2-F ) :   1.0557 B(  0-C ,  3-F ) :   1.0557

Dispersion correction           -0.000065035
FINAL SINGLE POINT ENERGY      -337.619772748375

DIPOLE MOMENT
-------------
                                X             Y             Z
Electronic contribution:     -0.00107      -0.00000       0.03751
Nuclear contribution   :     -0.00011       0.00000       0.26268
                        -----------------------------------------
Total Dipole Moment    :     -0.00118      -0.00000       0.30019
                        -----------------------------------------
Magnitude (a.u.)       :      0.30019
Magnitude (Debye)      :      0.76302

Dispersion correction in the Hessian             ... done   (      0.1 sec)

VIBRATIONAL FREQUENCIES
-----------------------

Scaling factor for frequencies =  1.000000000  (already applied!)

   0:         0.00 cm**-1
   1:         0.00 cm**-1
   2:         0.00 cm**-1
   3:         0.00 cm**-1
   4:         0.00 cm**-1
   5:         0.00 cm**-1
   6:       553.74 cm**-1
   7:       553.84 cm**-1
   8:       752.65 cm**-1
   9:      1117.28 cm**-1
  10:      1155.67 cm**-1
  11:      1157.74 cm**-1

IR SPECTRUM
-----------

 Mode   freq       eps      Int      T**2         TX        TY        TZ
       cm**-1   L/(mol*cm) km/mol    a.u.
----------------------------------------------------------------------------
  6:    553.74   0.000295    1.49  0.000166  ( 0.000007 -0.012895 -0.000000)
  7:    553.84   0.000294    1.48  0.000165  (-0.012861 -0.000007  0.000005)
  8:    752.65   0.002428   12.27  0.001007  ( 0.000080 -0.000000  0.031729)
  9:   1117.28   0.009324   47.12  0.002604  ( 0.003229 -0.000000 -0.050928)
 10:   1155.67   0.065715  332.10  0.017745  ( 0.133205  0.000002  0.001212)
 11:   1157.74   0.065691  331.98  0.017707  ( 0.000002 -0.133067  0.000000)

--------------------------
THERMOCHEMISTRY AT 298.15K
--------------------------

Temperature         ... 298.15 K
Pressure            ... 1.00 atm
Total Mass          ... 69.00 AMU

Throughout the following assumptions are being made:
  (1) The electronic state is orbitally nondegenerate
      but the spin degeneracy is treated
  (2) There are no thermally accessible electronically excited states
  (3) Hindered rotations indicated by low frequency modes are not
      treated as such but are treated as vibrations and this may
      cause some error
  (4) All equations used are the standard statistical mechanics
      equations for an ideal gas
  (5) All vibrations are strictly harmonic

freq.     553.74  E(vib)   ...       0.12
freq.     553.84  E(vib)   ...       0.12
freq.     752.65  E(vib)   ...       0.06
freq.    1117.28  E(vib)   ...       0.01
freq.    1155.67  E(vib)   ...       0.01
freq.    1157.74  E(vib)   ...       0.01

------------
INNER ENERGY
------------

The inner energy is: U= E(el) + E(ZPE) + E(vib) + E(rot) + E(trans)
    E(el)   - is the total energy from the electronic structure calculation
              = E(kin-el) + E(nuc-el) + E(el-el) + E(nuc-nuc)
    E(ZPE)  - the the zero temperature vibrational energy from the frequency calculation
    E(vib)  - the the finite temperature correction to E(ZPE) due to population
              of excited vibrational states
    E(rot)  - is the rotational thermal energy
    E(trans)- is the translational thermal energy

Summary of contributions to the inner energy U:
Electronic energy                ...   -337.61977275 Eh
Zero point energy                ...      0.01205361 Eh       7.56 kcal/mol
Thermal vibrational correction   ...      0.00053090 Eh       0.33 kcal/mol
Thermal rotational correction    ...      0.00141627 Eh       0.89 kcal/mol
Thermal translational correction ...      0.00141627 Eh       0.89 kcal/mol
-----------------------------------------------------------------------
Total thermal energy                   -337.60435569 Eh

Summary of corrections to the electronic energy:
(perhaps to be used in another calculation)
Total thermal correction                  0.00336344 Eh       2.11 kcal/mol
Non-thermal (ZPE) correction              0.01205361 Eh       7.56 kcal/mol
-----------------------------------------------------------------------
Total correction                          0.01541706 Eh       9.67 kcal/mol

--------
ENTHALPY
--------

The enthalpy is H = U + kB*T
                kB is Boltzmann's constant
Total free energy                 ...   -337.60435569 Eh
Thermal Enthalpy correction       ...      0.00094421 Eh       0.59 kcal/mol
-----------------------------------------------------------------------
Total Enthalpy                    ...   -337.60341148 Eh

Note: Rotational entropy computed according to Herzberg
Infrared and Raman Spectra, Chapter V,1, Van Nostrand Reinhold, 1945
Point Group:  Cs, Symmetry Number:   1
Rotational constants in cm-1:     0.374697     0.374498     0.200315

Vibrational entropy computed according to the QRRHO of S. Grimme
Chem.Eur.J. 2012 18 9955

-------
ENTROPY
-------

The entropy contributions are T*S = T*(S(el)+S(vib)+S(rot)+S(trans))
     S(el)   - electronic entropy
     S(vib)  - vibrational entropy
     S(rot)  - rotational entropy
     S(trans)- translational entropy
The entropies will be listed as multiplied by the temperature to get
units of energy

Electronic entropy                ...      0.00065446 Eh      0.41 kcal/mol
Vibrational entropy               ...      0.00070358 Eh      0.44 kcal/mol
Rotational entropy                ...      0.01119696 Eh      7.03 kcal/mol
Translational entropy             ...      0.01834582 Eh     11.51 kcal/mol
-----------------------------------------------------------------------
Final entropy term                ...      0.03090081 Eh     19.39 kcal/mol

In case the symmetry of your molecule has not been determined correctly
or in case you have a reason to use a different symmetry number we print
out the resulting rotational entropy values for sn=1,12 :
 --------------------------------------------------------
|  sn= 1 | S(rot)=       0.01119696 Eh      7.03 kcal/mol|
|  sn= 2 | S(rot)=       0.01054250 Eh      6.62 kcal/mol|
|  sn= 3 | S(rot)=       0.01015967 Eh      6.38 kcal/mol|
|  sn= 4 | S(rot)=       0.00988805 Eh      6.20 kcal/mol|
|  sn= 5 | S(rot)=       0.00967736 Eh      6.07 kcal/mol|
|  sn= 6 | S(rot)=       0.00950522 Eh      5.96 kcal/mol|
|  sn= 7 | S(rot)=       0.00935967 Eh      5.87 kcal/mol|
|  sn= 8 | S(rot)=       0.00923359 Eh      5.79 kcal/mol|
|  sn= 9 | S(rot)=       0.00912238 Eh      5.72 kcal/mol|
|  sn=10 | S(rot)=       0.00902290 Eh      5.66 kcal/mol|
|  sn=11 | S(rot)=       0.00893291 Eh      5.61 kcal/mol|
|  sn=12 | S(rot)=       0.00885076 Eh      5.55 kcal/mol|
 --------------------------------------------------------

-------------------
GIBBS FREE ENERGY
-------------------

The Gibbs free energy is G = H - T*S

Total enthalpy                    ...   -337.60341148 Eh
Total entropy correction          ...     -0.03090081 Eh    -19.39 kcal/mol
-----------------------------------------------------------------------
Final Gibbs free energy         ...   -337.63431230 Eh

For completeness - the Gibbs free energy minus the electronic energy
G-E(el)                           ...     -0.01453955 Eh     -9.12 kcal/mol

                             ****ORCA TERMINATED NORMALLY****
TOTAL RUN TIME: 0 days 0 hours 2 minutes 26 seconds 422 msec
