                         Program Version 5.0.4 -  RELEASE  -
|  1> ! UKS TightSCF wB97x-D3 def2-TZVPD xyzfile opt freq
|  2>
|  3> # CF3 radical 95.5 degrees fixed
|  4>
|  5> %maxcore 1000
|  6> %pal
|  7> nprocs 18
|  8> end
|  9>
| 10> %geom Constraints
| 11>         { A * 0 * C }
| 12>     end
| 13> end
| 14> * xyz 0 2
| 15> C 0.00 0.00 0.00
| 16> F 1.1239703055 0.0000000000 -0.6825802168
| 17> F -0.5619851527 0.9733868376 -0.6825802168
| 18> F -0.5619851527 -0.9733868376 -0.6825802168
| 19> **                         ****END OF INPUT****
 Total Charge           Charge          ....    0
 Multiplicity           Mult            ....    2
 Number of Electrons    NEL             ....   33
Dispersion correction           -0.000035409
FINAL SINGLE POINT ENERGY      -337.562694106206
Dispersion correction            ... done
Dispersion correction           -0.000046177
FINAL SINGLE POINT ENERGY      -337.570620064364
Dispersion correction            ... done
Dispersion correction           -0.000047823
FINAL SINGLE POINT ENERGY      -337.570747088564
Dispersion correction            ... done
Dispersion correction           -0.000048128
FINAL SINGLE POINT ENERGY      -337.570748786394
Dispersion correction            ... done
                    ***********************HURRAY********************

CARTESIAN COORDINATES (ANGSTROEM)
---------------------------------
  C      0.000078    0.000000    0.020102
  F      1.168010    0.000000   -0.689250
  F     -0.584043    1.011670   -0.689297
  F     -0.584044   -1.011670   -0.689297

 Multiplicity           Mult            ....    2
 Number of Electrons    NEL             ....   33
 Basis Dimension        Dim             ....  157

ORBITAL ENERGIES
----------------
                 SPIN UP ORBITALS
  NO   OCC          E(Eh)            E(eV)
   0   1.0000     -24.834780      -675.7887
   1   1.0000     -24.834696      -675.7864
   2   1.0000     -24.834694      -675.7864
   3   1.0000     -10.573572      -287.7215
   4   1.0000      -1.461087       -39.7582
   5   1.0000      -1.345487       -36.6126
   6   1.0000      -1.345417       -36.6107
   7   1.0000      -0.837826       -22.7984
   8   1.0000      -0.705788       -19.2055
   9   1.0000      -0.705782       -19.2053
  10   1.0000      -0.693860       -18.8809
  11   1.0000      -0.597321       -16.2539
  12   1.0000      -0.597314       -16.2537
  13   1.0000      -0.529895       -14.4192
  14   1.0000      -0.529868       -14.4184
  15   1.0000      -0.515637       -14.0312
  16   1.0000      -0.469366       -12.7721
  17   0.0000       0.072039         1.9603
  18   0.0000       0.099196         2.6993
  19   0.0000       0.099207         2.6996
  20   0.0000       0.111470         3.0332
  21   0.0000       0.148362         4.0371

                 SPIN DOWN ORBITALS
  NO   OCC          E(Eh)            E(eV)
   0   1.0000     -24.831910      -675.7106
   1   1.0000     -24.831829      -675.7084
   2   1.0000     -24.831821      -675.7082
   3   1.0000     -10.560490      -287.3655
   4   1.0000      -1.452305       -39.5192
   5   1.0000      -1.336631       -36.3716
   6   1.0000      -1.336559       -36.3696
   7   1.0000      -0.816039       -22.2056
   8   1.0000      -0.694199       -18.8901
   9   1.0000      -0.694191       -18.8899
  10   1.0000      -0.652844       -17.7648
  11   1.0000      -0.584884       -15.9155
  12   1.0000      -0.584882       -15.9154
  13   1.0000      -0.523091       -14.2340
  14   1.0000      -0.523064       -14.2333
  15   1.0000      -0.512239       -13.9387
  16   0.0000      -0.120936        -3.2908
  17   0.0000       0.081960         2.2302
  18   0.0000       0.105830         2.8798
  19   0.0000       0.105830         2.8798
  20   0.0000       0.123263         3.3542

MULLIKEN ATOMIC CHARGES AND SPIN POPULATIONS
--------------------------------------------
   0 C :    0.529736    0.757346
   1 F :   -0.176296    0.080931
   2 F :   -0.176719    0.080861
   3 F :   -0.176720    0.080862
Sum of atomic charges         :    0.0000000

LOEWDIN ATOMIC CHARGES AND SPIN POPULATIONS
-------------------------------------------
   0 C :   -0.163042    0.627964
   1 F :    0.054495    0.124026
   2 F :    0.054274    0.124005
   3 F :    0.054274    0.124005

  Mayer bond orders larger than 0.100000
B(  0-C ,  1-F ) :   1.0602 B(  0-C ,  2-F ) :   1.0597 B(  0-C ,  3-F ) :   1.0597

Dispersion correction           -0.000048135
FINAL SINGLE POINT ENERGY      -337.570748754807

DIPOLE MOMENT
-------------
                                X             Y             Z
Electronic contribution:      0.00044       0.00000       0.18970
Nuclear contribution   :      0.00005       0.00000       0.34321
                        -----------------------------------------
Total Dipole Moment    :      0.00049       0.00000       0.53291
                        -----------------------------------------
Magnitude (a.u.)       :      0.53291
Magnitude (Debye)      :      1.35456

Dispersion correction in the Hessian             ... done   (      0.1 sec)

VIBRATIONAL FREQUENCIES
-----------------------

Scaling factor for frequencies =  1.000000000  (already applied!)

   0:         0.00 cm**-1
   1:         0.00 cm**-1
   2:         0.00 cm**-1
   3:         0.00 cm**-1
   4:         0.00 cm**-1
   5:         0.00 cm**-1
   6:       606.06 cm**-1
   7:       606.69 cm**-1
   8:       805.50 cm**-1
   9:       968.96 cm**-1
  10:       969.94 cm**-1
  11:      1050.92 cm**-1

IR SPECTRUM
-----------

 Mode   freq       eps      Int      T**2         TX        TY        TZ
       cm**-1   L/(mol*cm) km/mol    a.u.
----------------------------------------------------------------------------
  6:    606.06   0.000296    1.50  0.000152  ( 0.012348 -0.000001 -0.000021)
  7:    606.69   0.000293    1.48  0.000151  ( 0.000001  0.012285 -0.000000)
  8:    805.50   0.003252   16.43  0.001260  ( 0.000167  0.000000  0.035492)
  9:    968.96   0.055489  280.42  0.017871  (-0.000057 -0.133682 -0.000000)
 10:    969.94   0.055524  280.60  0.017864  ( 0.133656 -0.000057  0.000164)
 11:   1050.92   0.008278   41.83  0.002458  ( 0.000551  0.000000 -0.049577)

--------------------------
THERMOCHEMISTRY AT 298.15K
--------------------------

Temperature         ... 298.15 K
Pressure            ... 1.00 atm
Total Mass          ... 69.00 AMU

Throughout the following assumptions are being made:
  (1) The electronic state is orbitally nondegenerate
      but the spin degeneracy is treated
  (2) There are no thermally accessible electronically excited states
  (3) Hindered rotations indicated by low frequency modes are not
      treated as such but are treated as vibrations and this may
      cause some error
  (4) All equations used are the standard statistical mechanics
      equations for an ideal gas
  (5) All vibrations are strictly harmonic

freq.     606.06  E(vib)   ...       0.10
freq.     606.69  E(vib)   ...       0.10
freq.     805.50  E(vib)   ...       0.05
freq.     968.96  E(vib)   ...       0.03
freq.     969.94  E(vib)   ...       0.03
freq.    1050.92  E(vib)   ...       0.02

------------
INNER ENERGY
------------

The inner energy is: U= E(el) + E(ZPE) + E(vib) + E(rot) + E(trans)
    E(el)   - is the total energy from the electronic structure calculation
              = E(kin-el) + E(nuc-el) + E(el-el) + E(nuc-nuc)
    E(ZPE)  - the the zero temperature vibrational energy from the frequency calculation
    E(vib)  - the the finite temperature correction to E(ZPE) due to population
              of excited vibrational states
    E(rot)  - is the rotational thermal energy
    E(trans)- is the translational thermal energy

Summary of contributions to the inner energy U:
Electronic energy                ...   -337.57074875 Eh
Zero point energy                ...      0.01140921 Eh       7.16 kcal/mol
Thermal vibrational correction   ...      0.00050296 Eh       0.32 kcal/mol
Thermal rotational correction    ...      0.00141627 Eh       0.89 kcal/mol
Thermal translational correction ...      0.00141627 Eh       0.89 kcal/mol
-----------------------------------------------------------------------
Total thermal energy                   -337.55600404 Eh

Summary of corrections to the electronic energy:
(perhaps to be used in another calculation)
Total thermal correction                  0.00333550 Eh       2.09 kcal/mol
Non-thermal (ZPE) correction              0.01140921 Eh       7.16 kcal/mol
-----------------------------------------------------------------------
Total correction                          0.01474471 Eh       9.25 kcal/mol

--------
ENTHALPY
--------

The enthalpy is H = U + kB*T
                kB is Boltzmann's constant
Total free energy                 ...   -337.55600404 Eh
Thermal Enthalpy correction       ...      0.00094421 Eh       0.59 kcal/mol
-----------------------------------------------------------------------
Total Enthalpy                    ...   -337.55505983 Eh

Note: Rotational entropy computed according to Herzberg
Infrared and Raman Spectra, Chapter V,1, Van Nostrand Reinhold, 1945
Point Group:  Cs, Symmetry Number:   1
Rotational constants in cm-1:     0.384256     0.384174     0.216772

Vibrational entropy computed according to the QRRHO of S. Grimme
Chem.Eur.J. 2012 18 9955

-------
ENTROPY
-------

The entropy contributions are T*S = T*(S(el)+S(vib)+S(rot)+S(trans))
     S(el)   - electronic entropy
     S(vib)  - vibrational entropy
     S(rot)  - rotational entropy
     S(trans)- translational entropy
The entropies will be listed as multiplied by the temperature to get
units of energy

Electronic entropy                ...      0.00065446 Eh      0.41 kcal/mol
Vibrational entropy               ...      0.00065071 Eh      0.41 kcal/mol
Rotational entropy                ...      0.01113575 Eh      6.99 kcal/mol
Translational entropy             ...      0.01834582 Eh     11.51 kcal/mol
-----------------------------------------------------------------------
Final entropy term                ...      0.03078673 Eh     19.32 kcal/mol

In case the symmetry of your molecule has not been determined correctly
or in case you have a reason to use a different symmetry number we print
out the resulting rotational entropy values for sn=1,12 :
 --------------------------------------------------------
|  sn= 1 | S(rot)=       0.01113575 Eh      6.99 kcal/mol|
|  sn= 2 | S(rot)=       0.01048130 Eh      6.58 kcal/mol|
|  sn= 3 | S(rot)=       0.01009846 Eh      6.34 kcal/mol|
|  sn= 4 | S(rot)=       0.00982684 Eh      6.17 kcal/mol|
|  sn= 5 | S(rot)=       0.00961615 Eh      6.03 kcal/mol|
|  sn= 6 | S(rot)=       0.00944401 Eh      5.93 kcal/mol|
|  sn= 7 | S(rot)=       0.00929846 Eh      5.83 kcal/mol|
|  sn= 8 | S(rot)=       0.00917238 Eh      5.76 kcal/mol|
|  sn= 9 | S(rot)=       0.00906117 Eh      5.69 kcal/mol|
|  sn=10 | S(rot)=       0.00896169 Eh      5.62 kcal/mol|
|  sn=11 | S(rot)=       0.00887170 Eh      5.57 kcal/mol|
|  sn=12 | S(rot)=       0.00878955 Eh      5.52 kcal/mol|
 --------------------------------------------------------

-------------------
GIBBS FREE ENERGY
-------------------

The Gibbs free energy is G = H - T*S

Total enthalpy                    ...   -337.55505983 Eh
Total entropy correction          ...     -0.03078673 Eh    -19.32 kcal/mol
-----------------------------------------------------------------------
Final Gibbs free energy         ...   -337.58584657 Eh

For completeness - the Gibbs free energy minus the electronic energy
G-E(el)                           ...     -0.01509781 Eh     -9.47 kcal/mol

                             ****ORCA TERMINATED NORMALLY****
TOTAL RUN TIME: 0 days 0 hours 2 minutes 1 seconds 57 msec
