                         Program Version 5.0.4 -  RELEASE  -
|  1> ! UKS TightSCF wB97x-D3 def2-TZVPD xyzfile opt freq
|  2>
|  3> # CF3 radical 104.0 degrees fixed
|  4>
|  5> %maxcore 1000
|  6> %pal
|  7> nprocs 18
|  8> end
|  9>
| 10> %geom Constraints
| 11>         { A * 0 * C }
| 12>     end
| 13> end
| 14> * xyz 0 2
| 15> C 0.00 0.00 0.00
| 16> F 1.1965401205 0.0000000000 -0.5454509511
| 17> F -0.5982700602 1.0362341410 -0.5454509511
| 18> F -0.5982700602 -1.0362341410 -0.5454509511
| 19> **                         ****END OF INPUT****
 Total Charge           Charge          ....    0
 Multiplicity           Mult            ....    2
 Number of Electrons    NEL             ....   33
Dispersion correction           -0.000057594
FINAL SINGLE POINT ENERGY      -337.617033555160
Dispersion correction            ... done
Dispersion correction           -0.000062877
FINAL SINGLE POINT ENERGY      -337.617923204786
Dispersion correction            ... done
Dispersion correction           -0.000063866
FINAL SINGLE POINT ENERGY      -337.617944067592
Dispersion correction            ... done
                    ***********************HURRAY********************

CARTESIAN COORDINATES (ANGSTROEM)
---------------------------------
  C     -0.000171   -0.000000    0.005430
  F      1.212657   -0.000000   -0.547313
  F     -0.606243    1.049835   -0.547235
  F     -0.606243   -1.049835   -0.547235

 Multiplicity           Mult            ....    2
 Number of Electrons    NEL             ....   33
 Basis Dimension        Dim             ....  157

ORBITAL ENERGIES
----------------
                 SPIN UP ORBITALS
  NO   OCC          E(Eh)            E(eV)
   0   1.0000     -24.845450      -676.0791
   1   1.0000     -24.845446      -676.0789
   2   1.0000     -24.845260      -676.0739
   3   1.0000     -10.555005      -287.2163
   4   1.0000      -1.469678       -39.9920
   5   1.0000      -1.368479       -37.2382
   6   1.0000      -1.368281       -37.2328
   7   1.0000      -0.838776       -22.8243
   8   1.0000      -0.723543       -19.6886
   9   1.0000      -0.723485       -19.6870
  10   1.0000      -0.699292       -19.0287
  11   1.0000      -0.604295       -16.4437
  12   1.0000      -0.604293       -16.4436
  13   1.0000      -0.554919       -15.1001
  14   1.0000      -0.554839       -15.0979
  15   1.0000      -0.534176       -14.5357
  16   1.0000      -0.423045       -11.5116
  17   0.0000       0.072166         1.9637
  18   0.0000       0.105004         2.8573
  19   0.0000       0.105009         2.8574
  20   0.0000       0.112505         3.0614
  21   0.0000       0.160766         4.3747

                 SPIN DOWN ORBITALS
  NO   OCC          E(Eh)            E(eV)
   0   1.0000     -24.842519      -675.9993
   1   1.0000     -24.842510      -675.9991
   2   1.0000     -24.842326      -675.9941
   3   1.0000     -10.542032      -286.8633
   4   1.0000      -1.460414       -39.7399
   5   1.0000      -1.359772       -37.0013
   6   1.0000      -1.359571       -36.9958
   7   1.0000      -0.819702       -22.3052
   8   1.0000      -0.712548       -19.3894
   9   1.0000      -0.712498       -19.3881
  10   1.0000      -0.659604       -17.9487
  11   1.0000      -0.592640       -16.1266
  12   1.0000      -0.592640       -16.1266
  13   1.0000      -0.547154       -14.8888
  14   1.0000      -0.547068       -14.8865
  15   1.0000      -0.530868       -14.4456
  16   0.0000      -0.071147        -1.9360
  17   0.0000       0.082320         2.2400
  18   0.0000       0.108073         2.9408
  19   0.0000       0.108082         2.9411
  20   0.0000       0.127166         3.4604

MULLIKEN ATOMIC CHARGES AND SPIN POPULATIONS
--------------------------------------------
   0 C :    0.542375    0.785837
   1 F :   -0.180917    0.071387
   2 F :   -0.180729    0.071388
   3 F :   -0.180729    0.071388
Sum of atomic charges         :    0.0000000

LOEWDIN ATOMIC CHARGES AND SPIN POPULATIONS
-------------------------------------------
   0 C :   -0.316187    0.622378
   1 F :    0.105011    0.125864
   2 F :    0.105588    0.125879
   3 F :    0.105588    0.125879

  Mayer bond orders larger than 0.100000
B(  0-C ,  1-F ) :   1.0558 B(  0-C ,  2-F ) :   1.0561 B(  0-C ,  3-F ) :   1.0561

Dispersion correction           -0.000063926
FINAL SINGLE POINT ENERGY      -337.617944010743

DIPOLE MOMENT
-------------
                                X             Y             Z
Electronic contribution:     -0.00110      -0.00000       0.04621
Nuclear contribution   :     -0.00011      -0.00000       0.26740
                        -----------------------------------------
Total Dipole Moment    :     -0.00121      -0.00000       0.31361
                        -----------------------------------------
Magnitude (a.u.)       :      0.31361
Magnitude (Debye)      :      0.79713

Dispersion correction in the Hessian             ... done   (      0.1 sec)

VIBRATIONAL FREQUENCIES
-----------------------

Scaling factor for frequencies =  1.000000000  (already applied!)

   0:         0.00 cm**-1
   1:         0.00 cm**-1
   2:         0.00 cm**-1
   3:         0.00 cm**-1
   4:         0.00 cm**-1
   5:         0.00 cm**-1
   6:       556.80 cm**-1
   7:       556.81 cm**-1
   8:       755.62 cm**-1
   9:      1116.02 cm**-1
  10:      1146.40 cm**-1
  11:      1148.49 cm**-1

IR SPECTRUM
-----------

 Mode   freq       eps      Int      T**2         TX        TY        TZ
       cm**-1   L/(mol*cm) km/mol    a.u.
----------------------------------------------------------------------------
  6:    556.80   0.000295    1.49  0.000165  (-0.000050 -0.012852 -0.000000)
  7:    556.81   0.000294    1.48  0.000165  (-0.012827  0.000050 -0.000009)
  8:    755.62   0.002442   12.34  0.001009  ( 0.000092 -0.000000  0.031760)
  9:   1116.02   0.009381   47.41  0.002623  (-0.004200 -0.000001  0.051045)
 10:   1146.40   0.065157  329.28  0.017737  (-0.133169  0.000015 -0.001579)
 11:   1148.49   0.065157  329.28  0.017704  ( 0.000015  0.133057  0.000000)

--------------------------
THERMOCHEMISTRY AT 298.15K
--------------------------

Temperature         ... 298.15 K
Pressure            ... 1.00 atm
Total Mass          ... 69.00 AMU

Throughout the following assumptions are being made:
  (1) The electronic state is orbitally nondegenerate
      but the spin degeneracy is treated
  (2) There are no thermally accessible electronically excited states
  (3) Hindered rotations indicated by low frequency modes are not
      treated as such but are treated as vibrations and this may
      cause some error
  (4) All equations used are the standard statistical mechanics
      equations for an ideal gas
  (5) All vibrations are strictly harmonic

freq.     556.80  E(vib)   ...       0.12
freq.     556.81  E(vib)   ...       0.12
freq.     755.62  E(vib)   ...       0.06
freq.    1116.02  E(vib)   ...       0.01
freq.    1146.40  E(vib)   ...       0.01
freq.    1148.49  E(vib)   ...       0.01

------------
INNER ENERGY
------------

The inner energy is: U= E(el) + E(ZPE) + E(vib) + E(rot) + E(trans)
    E(el)   - is the total energy from the electronic structure calculation
              = E(kin-el) + E(nuc-el) + E(el-el) + E(nuc-nuc)
    E(ZPE)  - the the zero temperature vibrational energy from the frequency calculation
    E(vib)  - the the finite temperature correction to E(ZPE) due to population
              of excited vibrational states
    E(rot)  - is the rotational thermal energy
    E(trans)- is the translational thermal energy

Summary of contributions to the inner energy U:
Electronic energy                ...   -337.61794401 Eh
Zero point energy                ...      0.01202904 Eh       7.55 kcal/mol
Thermal vibrational correction   ...      0.00052772 Eh       0.33 kcal/mol
Thermal rotational correction    ...      0.00141627 Eh       0.89 kcal/mol
Thermal translational correction ...      0.00141627 Eh       0.89 kcal/mol
-----------------------------------------------------------------------
Total thermal energy                   -337.60255472 Eh

Summary of corrections to the electronic energy:
(perhaps to be used in another calculation)
Total thermal correction                  0.00336026 Eh       2.11 kcal/mol
Non-thermal (ZPE) correction              0.01202904 Eh       7.55 kcal/mol
-----------------------------------------------------------------------
Total correction                          0.01538930 Eh       9.66 kcal/mol

--------
ENTHALPY
--------

The enthalpy is H = U + kB*T
                kB is Boltzmann's constant
Total free energy                 ...   -337.60255472 Eh
Thermal Enthalpy correction       ...      0.00094421 Eh       0.59 kcal/mol
-----------------------------------------------------------------------
Total Enthalpy                    ...   -337.60161051 Eh

Note: Rotational entropy computed according to Herzberg
Infrared and Raman Spectra, Chapter V,1, Van Nostrand Reinhold, 1945
Point Group:  Cs, Symmetry Number:   1
Rotational constants in cm-1:     0.375384     0.375179     0.201215

Vibrational entropy computed according to the QRRHO of S. Grimme
Chem.Eur.J. 2012 18 9955

-------
ENTROPY
-------

The entropy contributions are T*S = T*(S(el)+S(vib)+S(rot)+S(trans))
     S(el)   - electronic entropy
     S(vib)  - vibrational entropy
     S(rot)  - rotational entropy
     S(trans)- translational entropy
The entropies will be listed as multiplied by the temperature to get
units of energy

Electronic entropy                ...      0.00065446 Eh      0.41 kcal/mol
Vibrational entropy               ...      0.00069835 Eh      0.44 kcal/mol
Rotational entropy                ...      0.01119312 Eh      7.02 kcal/mol
Translational entropy             ...      0.01834582 Eh     11.51 kcal/mol
-----------------------------------------------------------------------
Final entropy term                ...      0.03089175 Eh     19.38 kcal/mol

In case the symmetry of your molecule has not been determined correctly
or in case you have a reason to use a different symmetry number we print
out the resulting rotational entropy values for sn=1,12 :
 --------------------------------------------------------
|  sn= 1 | S(rot)=       0.01119312 Eh      7.02 kcal/mol|
|  sn= 2 | S(rot)=       0.01053867 Eh      6.61 kcal/mol|
|  sn= 3 | S(rot)=       0.01015584 Eh      6.37 kcal/mol|
|  sn= 4 | S(rot)=       0.00988421 Eh      6.20 kcal/mol|
|  sn= 5 | S(rot)=       0.00967352 Eh      6.07 kcal/mol|
|  sn= 6 | S(rot)=       0.00950138 Eh      5.96 kcal/mol|
|  sn= 7 | S(rot)=       0.00935583 Eh      5.87 kcal/mol|
|  sn= 8 | S(rot)=       0.00922976 Eh      5.79 kcal/mol|
|  sn= 9 | S(rot)=       0.00911855 Eh      5.72 kcal/mol|
|  sn=10 | S(rot)=       0.00901907 Eh      5.66 kcal/mol|
|  sn=11 | S(rot)=       0.00892908 Eh      5.60 kcal/mol|
|  sn=12 | S(rot)=       0.00884692 Eh      5.55 kcal/mol|
 --------------------------------------------------------

-------------------
GIBBS FREE ENERGY
-------------------

The Gibbs free energy is G = H - T*S

Total enthalpy                    ...   -337.60161051 Eh
Total entropy correction          ...     -0.03089175 Eh    -19.38 kcal/mol
-----------------------------------------------------------------------
Final Gibbs free energy         ...   -337.63250226 Eh

For completeness - the Gibbs free energy minus the electronic energy
G-E(el)                           ...     -0.01455824 Eh     -9.14 kcal/mol

                             ****ORCA TERMINATED NORMALLY****
TOTAL RUN TIME: 0 days 0 hours 2 minutes 32 seconds 89 msec
