                         Program Version 5.0.4 -  RELEASE  -
|  1> ! UKS TightSCF wB97x-D3 def2-TZVPD xyzfile opt freq
|  2>
|  3> # CF3 radical 113.0 degrees fixed
|  4>
|  5> %maxcore 1000
|  6> %pal
|  7> nprocs 18
|  8> end
|  9>
| 10> %geom Constraints
| 11>         { A * 0 * C }
| 12>     end
| 13> end
| 14> * xyz 0 2
| 15> C 0.00 0.00 0.00
| 16> F 1.2661982561 0.0000000000 -0.3549182670
| 17> F -0.6330991281 1.0965598560 -0.3549182670
| 18> F -0.6330991281 -1.0965598560 -0.3549182670
| 19> **                         ****END OF INPUT****
 Total Charge           Charge          ....    0
 Multiplicity           Mult            ....    2
 Number of Electrons    NEL             ....   33
Dispersion correction           -0.000089239
FINAL SINGLE POINT ENERGY      -337.631831131963
Dispersion correction            ... done
Dispersion correction           -0.000088230
FINAL SINGLE POINT ENERGY      -337.631847477862
Dispersion correction            ... done
Dispersion correction           -0.000087988
FINAL SINGLE POINT ENERGY      -337.631847993608
Dispersion correction            ... done
                    ***********************HURRAY********************

CARTESIAN COORDINATES (ANGSTROEM)
---------------------------------
  C      0.000224   -0.000000   -0.000483
  F      1.263560   -0.000000   -0.354715
  F     -0.631892    1.094805   -0.354778
  F     -0.631892   -1.094805   -0.354778

 Multiplicity           Mult            ....    2
 Number of Electrons    NEL             ....   33
 Basis Dimension        Dim             ....  157

ORBITAL ENERGIES
----------------
                 SPIN UP ORBITALS
  NO   OCC          E(Eh)            E(eV)
   0   1.0000     -24.855166      -676.3435
   1   1.0000     -24.854895      -676.3361
   2   1.0000     -24.854888      -676.3359
   3   1.0000     -10.536582      -286.7150
   4   1.0000      -1.470025       -40.0014
   5   1.0000      -1.386358       -37.7247
   6   1.0000      -1.386056       -37.7165
   7   1.0000      -0.838735       -22.8231
   8   1.0000      -0.735360       -20.0102
   9   1.0000      -0.735274       -20.0078
  10   1.0000      -0.701417       -19.0865
  11   1.0000      -0.607430       -16.5290
  12   1.0000      -0.607419       -16.5287
  13   1.0000      -0.577468       -15.7137
  14   1.0000      -0.577362       -15.7108
  15   1.0000      -0.550106       -14.9691
  16   1.0000      -0.359535        -9.7834
  17   0.0000       0.068680         1.8689
  18   0.0000       0.103105         2.8056
  19   0.0000       0.103117         2.8060
  20   0.0000       0.115226         3.1354
  21   0.0000       0.157116         4.2753

                 SPIN DOWN ORBITALS
  NO   OCC          E(Eh)            E(eV)
   0   1.0000     -24.852156      -676.2615
   1   1.0000     -24.851888      -676.2543
   2   1.0000     -24.851876      -676.2539
   3   1.0000     -10.523769      -286.3663
   4   1.0000      -1.459836       -39.7242
   5   1.0000      -1.377875       -37.4939
   6   1.0000      -1.377575       -37.4857
   7   1.0000      -0.820450       -22.3256
   8   1.0000      -0.725394       -19.7390
   9   1.0000      -0.725311       -19.7367
  10   1.0000      -0.663697       -18.0601
  11   1.0000      -0.596916       -16.2429
  12   1.0000      -0.596874       -16.2418
  13   1.0000      -0.567381       -15.4392
  14   1.0000      -0.567241       -15.4354
  15   1.0000      -0.546859       -14.8808
  16   0.0000      -0.007752        -0.2109
  17   0.0000       0.081425         2.2157
  18   0.0000       0.106677         2.9028
  19   0.0000       0.106692         2.9032
  20   0.0000       0.131795         3.5863

MULLIKEN ATOMIC CHARGES AND SPIN POPULATIONS
--------------------------------------------
   0 C :    0.526554    0.823226
   1 F :   -0.175321    0.058938
   2 F :   -0.175618    0.058919
   3 F :   -0.175614    0.058917
Sum of atomic charges         :   -0.0000000

LOEWDIN ATOMIC CHARGES AND SPIN POPULATIONS
-------------------------------------------
   0 C :   -0.426233    0.612746
   1 F :    0.142666    0.129148
   2 F :    0.141783    0.129053
   3 F :    0.141784    0.129053

  Mayer bond orders larger than 0.100000
B(  0-C ,  1-F ) :   1.0513 B(  0-C ,  2-F ) :   1.0507 B(  0-C ,  3-F ) :   1.0507

Dispersion correction           -0.000087990
FINAL SINGLE POINT ENERGY      -337.631847901635

DIPOLE MOMENT
-------------
                                X             Y             Z
Electronic contribution:      0.00148      -0.00000      -0.11525
Nuclear contribution   :      0.00014      -0.00000       0.17140
                        -----------------------------------------
Total Dipole Moment    :      0.00163      -0.00000       0.05615
                        -----------------------------------------
Magnitude (a.u.)       :      0.05617
Magnitude (Debye)      :      0.14278

Dispersion correction in the Hessian             ... done   (      0.1 sec)

VIBRATIONAL FREQUENCIES
-----------------------

Scaling factor for frequencies =  1.000000000  (already applied!)

   0:         0.00 cm**-1
   1:         0.00 cm**-1
   2:         0.00 cm**-1
   3:         0.00 cm**-1
   4:         0.00 cm**-1
   5:         0.00 cm**-1
   6:       501.48 cm**-1
   7:       501.80 cm**-1
   8:       692.68 cm**-1
   9:      1078.87 cm**-1
  10:      1293.02 cm**-1
  11:      1295.57 cm**-1

IR SPECTRUM
-----------

 Mode   freq       eps      Int      T**2         TX        TY        TZ
       cm**-1   L/(mol*cm) km/mol    a.u.
----------------------------------------------------------------------------
  6:    501.48   0.000311    1.57  0.000194  (-0.013918  0.000000 -0.000074)
  7:    501.80   0.000307    1.55  0.000191  ( 0.000000  0.013821  0.000000)
  8:    692.68   0.002396   12.11  0.001080  (-0.000107  0.000000  0.032857)
  9:   1078.87   0.006580   33.25  0.001903  (-0.000967  0.000000 -0.043616)
 10:   1293.02   0.073029  369.06  0.017625  ( 0.000019 -0.132760 -0.000000)
 11:   1295.57   0.073044  369.14  0.017594  (-0.132643 -0.000019  0.000206)

--------------------------
THERMOCHEMISTRY AT 298.15K
--------------------------

Temperature         ... 298.15 K
Pressure            ... 1.00 atm
Total Mass          ... 69.00 AMU

Throughout the following assumptions are being made:
  (1) The electronic state is orbitally nondegenerate
      but the spin degeneracy is treated
  (2) There are no thermally accessible electronically excited states
  (3) Hindered rotations indicated by low frequency modes are not
      treated as such but are treated as vibrations and this may
      cause some error
  (4) All equations used are the standard statistical mechanics
      equations for an ideal gas
  (5) All vibrations are strictly harmonic

freq.     501.48  E(vib)   ...       0.14
freq.     501.80  E(vib)   ...       0.14
freq.     692.68  E(vib)   ...       0.07
freq.    1078.87  E(vib)   ...       0.02
freq.    1293.02  E(vib)   ...       0.01
freq.    1295.57  E(vib)   ...       0.01

------------
INNER ENERGY
------------

The inner energy is: U= E(el) + E(ZPE) + E(vib) + E(rot) + E(trans)
    E(el)   - is the total energy from the electronic structure calculation
              = E(kin-el) + E(nuc-el) + E(el-el) + E(nuc-nuc)
    E(ZPE)  - the the zero temperature vibrational energy from the frequency calculation
    E(vib)  - the the finite temperature correction to E(ZPE) due to population
              of excited vibrational states
    E(rot)  - is the rotational thermal energy
    E(trans)- is the translational thermal energy

Summary of contributions to the inner energy U:
Electronic energy                ...   -337.63184790 Eh
Zero point energy                ...      0.01221880 Eh       7.67 kcal/mol
Thermal vibrational correction   ...      0.00061147 Eh       0.38 kcal/mol
Thermal rotational correction    ...      0.00141627 Eh       0.89 kcal/mol
Thermal translational correction ...      0.00141627 Eh       0.89 kcal/mol
-----------------------------------------------------------------------
Total thermal energy                   -337.61618509 Eh

Summary of corrections to the electronic energy:
(perhaps to be used in another calculation)
Total thermal correction                  0.00344401 Eh       2.16 kcal/mol
Non-thermal (ZPE) correction              0.01221880 Eh       7.67 kcal/mol
-----------------------------------------------------------------------
Total correction                          0.01566281 Eh       9.83 kcal/mol

--------
ENTHALPY
--------

The enthalpy is H = U + kB*T
                kB is Boltzmann's constant
Total free energy                 ...   -337.61618509 Eh
Thermal Enthalpy correction       ...      0.00094421 Eh       0.59 kcal/mol
-----------------------------------------------------------------------
Total Enthalpy                    ...   -337.61524088 Eh

Note: Rotational entropy computed according to Herzberg
Infrared and Raman Spectra, Chapter V,1, Van Nostrand Reinhold, 1945
Point Group:  Cs, Symmetry Number:   1
Rotational constants in cm-1:     0.360604     0.360306     0.185157

Vibrational entropy computed according to the QRRHO of S. Grimme
Chem.Eur.J. 2012 18 9955

-------
ENTROPY
-------

The entropy contributions are T*S = T*(S(el)+S(vib)+S(rot)+S(trans))
     S(el)   - electronic entropy
     S(vib)  - vibrational entropy
     S(rot)  - rotational entropy
     S(trans)- translational entropy
The entropies will be listed as multiplied by the temperature to get
units of energy

Electronic entropy                ...      0.00065446 Eh      0.41 kcal/mol
Vibrational entropy               ...      0.00083106 Eh      0.52 kcal/mol
Rotational entropy                ...      0.01127045 Eh      7.07 kcal/mol
Translational entropy             ...      0.01834582 Eh     11.51 kcal/mol
-----------------------------------------------------------------------
Final entropy term                ...      0.03110178 Eh     19.52 kcal/mol

In case the symmetry of your molecule has not been determined correctly
or in case you have a reason to use a different symmetry number we print
out the resulting rotational entropy values for sn=1,12 :
 --------------------------------------------------------
|  sn= 1 | S(rot)=       0.01127045 Eh      7.07 kcal/mol|
|  sn= 2 | S(rot)=       0.01061599 Eh      6.66 kcal/mol|
|  sn= 3 | S(rot)=       0.01023316 Eh      6.42 kcal/mol|
|  sn= 4 | S(rot)=       0.00996153 Eh      6.25 kcal/mol|
|  sn= 5 | S(rot)=       0.00975085 Eh      6.12 kcal/mol|
|  sn= 6 | S(rot)=       0.00957870 Eh      6.01 kcal/mol|
|  sn= 7 | S(rot)=       0.00943315 Eh      5.92 kcal/mol|
|  sn= 8 | S(rot)=       0.00930708 Eh      5.84 kcal/mol|
|  sn= 9 | S(rot)=       0.00919587 Eh      5.77 kcal/mol|
|  sn=10 | S(rot)=       0.00909639 Eh      5.71 kcal/mol|
|  sn=11 | S(rot)=       0.00900640 Eh      5.65 kcal/mol|
|  sn=12 | S(rot)=       0.00892424 Eh      5.60 kcal/mol|
 --------------------------------------------------------

-------------------
GIBBS FREE ENERGY
-------------------

The Gibbs free energy is G = H - T*S

Total enthalpy                    ...   -337.61524088 Eh
Total entropy correction          ...     -0.03110178 Eh    -19.52 kcal/mol
-----------------------------------------------------------------------
Final Gibbs free energy         ...   -337.64634266 Eh

For completeness - the Gibbs free energy minus the electronic energy
G-E(el)                           ...     -0.01449476 Eh     -9.10 kcal/mol

                             ****ORCA TERMINATED NORMALLY****
TOTAL RUN TIME: 0 days 0 hours 2 minutes 14 seconds 965 msec
