                         Program Version 5.0.4 -  RELEASE  -
|  1> ! UKS TightSCF wB97x-D3 def2-TZVPD xyzfile opt freq
|  2>
|  3> # CF3 radical 97.0 degrees fixed
|  4>
|  5> %maxcore 1000
|  6> %pal
|  7> nprocs 18
|  8> end
|  9>
| 10> %geom Constraints
| 11>         { A * 0 * C }
| 12>     end
| 13> end
| 14> * xyz 0 2
| 15> C 0.00 0.00 0.00
| 16> F 1.1372377398 0.0000000000 -0.6602388379
| 17> F -0.5686188699 0.9848767728 -0.6602388379
| 18> F -0.5686188699 -0.9848767728 -0.6602388379
| 19> **                         ****END OF INPUT****
 Total Charge           Charge          ....    0
 Multiplicity           Mult            ....    2
 Number of Electrons    NEL             ....   33
Dispersion correction           -0.000038783
FINAL SINGLE POINT ENERGY      -337.575303511624
Dispersion correction            ... done
Dispersion correction           -0.000048723
FINAL SINGLE POINT ENERGY      -337.581137516568
Dispersion correction            ... done
Dispersion correction           -0.000050279
FINAL SINGLE POINT ENERGY      -337.581233818809
Dispersion correction            ... done
Dispersion correction           -0.000050527
FINAL SINGLE POINT ENERGY      -337.581234304018
Dispersion correction            ... done
                    ***********************HURRAY********************

CARTESIAN COORDINATES (ANGSTROEM)
---------------------------------
  C      0.000060   -0.000000    0.016727
  F      1.175577   -0.000000   -0.665791
  F     -0.587819    1.018194   -0.665826
  F     -0.587819   -1.018194   -0.665826

 Multiplicity           Mult            ....    2
 Number of Electrons    NEL             ....   33
 Basis Dimension        Dim             ....  157

ORBITAL ENERGIES
----------------
                 SPIN UP ORBITALS
  NO   OCC          E(Eh)            E(eV)
   0   1.0000     -24.836727      -675.8417
   1   1.0000     -24.836662      -675.8399
   2   1.0000     -24.836660      -675.8399
   3   1.0000     -10.570120      -287.6276
   4   1.0000      -1.463146       -39.8142
   5   1.0000      -1.349844       -36.7311
   6   1.0000      -1.349790       -36.7296
   7   1.0000      -0.837992       -22.8029
   8   1.0000      -0.709330       -19.3019
   9   1.0000      -0.709327       -19.3018
  10   1.0000      -0.695014       -18.9123
  11   1.0000      -0.598750       -16.2928
  12   1.0000      -0.598743       -16.2926
  13   1.0000      -0.534531       -14.5453
  14   1.0000      -0.534512       -14.5448
  15   1.0000      -0.519099       -14.1254
  16   1.0000      -0.461833       -12.5671
  17   0.0000       0.072180         1.9641
  18   0.0000       0.101285         2.7561
  19   0.0000       0.101290         2.7563
  20   0.0000       0.111614         3.0372
  21   0.0000       0.152399         4.1470

                 SPIN DOWN ORBITALS
  NO   OCC          E(Eh)            E(eV)
   0   1.0000     -24.833850      -675.7634
   1   1.0000     -24.833788      -675.7617
   2   1.0000     -24.833780      -675.7615
   3   1.0000     -10.557045      -287.2718
   4   1.0000      -1.454307       -39.5737
   5   1.0000      -1.341024       -36.4911
   6   1.0000      -1.340968       -36.4896
   7   1.0000      -0.816819       -22.2268
   8   1.0000      -0.697834       -18.9890
   9   1.0000      -0.697829       -18.9889
  10   1.0000      -0.654162       -17.8006
  11   1.0000      -0.586477       -15.9588
  12   1.0000      -0.586473       -15.9587
  13   1.0000      -0.527594       -14.3566
  14   1.0000      -0.527574       -14.3560
  15   1.0000      -0.515724       -14.0336
  16   0.0000      -0.112580        -3.0635
  17   0.0000       0.082067         2.2332
  18   0.0000       0.106644         2.9019
  19   0.0000       0.106645         2.9019
  20   0.0000       0.123940         3.3726

MULLIKEN ATOMIC CHARGES AND SPIN POPULATIONS
--------------------------------------------
   0 C :    0.533448    0.762446
   1 F :   -0.177622    0.079238
   2 F :   -0.177913    0.079158
   3 F :   -0.177913    0.079158
Sum of atomic charges         :   -0.0000000

LOEWDIN ATOMIC CHARGES AND SPIN POPULATIONS
-------------------------------------------
   0 C :   -0.193197    0.627401
   1 F :    0.064514    0.124221
   2 F :    0.064341    0.124189
   3 F :    0.064341    0.124189

  Mayer bond orders larger than 0.100000
B(  0-C ,  1-F ) :   1.0601 B(  0-C ,  2-F ) :   1.0597 B(  0-C ,  3-F ) :   1.0597

Dispersion correction           -0.000050532
FINAL SINGLE POINT ENERGY      -337.581234282014

DIPOLE MOMENT
-------------
                                X             Y             Z
Electronic contribution:      0.00033      -0.00000       0.16494
Nuclear contribution   :      0.00004      -0.00000       0.33023
                        -----------------------------------------
Total Dipole Moment    :      0.00036      -0.00000       0.49516
                        -----------------------------------------
Magnitude (a.u.)       :      0.49516
Magnitude (Debye)      :      1.25860

Dispersion correction in the Hessian             ... done   (      0.1 sec)

VIBRATIONAL FREQUENCIES
-----------------------

Scaling factor for frequencies =  1.000000000  (already applied!)

   0:         0.00 cm**-1
   1:         0.00 cm**-1
   2:         0.00 cm**-1
   3:         0.00 cm**-1
   4:         0.00 cm**-1
   5:         0.00 cm**-1
   6:       597.31 cm**-1
   7:       598.18 cm**-1
   8:       797.28 cm**-1
   9:      1003.43 cm**-1
  10:      1004.16 cm**-1
  11:      1067.76 cm**-1

IR SPECTRUM
-----------

 Mode   freq       eps      Int      T**2         TX        TY        TZ
       cm**-1   L/(mol*cm) km/mol    a.u.
----------------------------------------------------------------------------
  6:    597.31   0.000297    1.50  0.000155  (-0.012449  0.000001 -0.000019)
  7:    598.18   0.000293    1.48  0.000153  ( 0.000001  0.012356  0.000000)
  8:    797.28   0.002978   15.05  0.001166  (-0.000123 -0.000000 -0.034142)
  9:   1003.43   0.057242  289.28  0.017802  (-0.000055  0.133424  0.000000)
 10:   1004.16   0.057287  289.50  0.017803  ( 0.133428  0.000055  0.000101)
 11:   1067.76   0.008728   44.11  0.002551  (-0.000354 -0.000000  0.050503)

--------------------------
THERMOCHEMISTRY AT 298.15K
--------------------------

Temperature         ... 298.15 K
Pressure            ... 1.00 atm
Total Mass          ... 69.00 AMU

Throughout the following assumptions are being made:
  (1) The electronic state is orbitally nondegenerate
      but the spin degeneracy is treated
  (2) There are no thermally accessible electronically excited states
  (3) Hindered rotations indicated by low frequency modes are not
      treated as such but are treated as vibrations and this may
      cause some error
  (4) All equations used are the standard statistical mechanics
      equations for an ideal gas
  (5) All vibrations are strictly harmonic

freq.     597.31  E(vib)   ...       0.10
freq.     598.18  E(vib)   ...       0.10
freq.     797.28  E(vib)   ...       0.05
freq.    1003.43  E(vib)   ...       0.02
freq.    1004.16  E(vib)   ...       0.02
freq.    1067.76  E(vib)   ...       0.02

------------
INNER ENERGY
------------

The inner energy is: U= E(el) + E(ZPE) + E(vib) + E(rot) + E(trans)
    E(el)   - is the total energy from the electronic structure calculation
              = E(kin-el) + E(nuc-el) + E(el-el) + E(nuc-nuc)
    E(ZPE)  - the the zero temperature vibrational energy from the frequency calculation
    E(vib)  - the the finite temperature correction to E(ZPE) due to population
              of excited vibrational states
    E(rot)  - is the rotational thermal energy
    E(trans)- is the translational thermal energy

Summary of contributions to the inner energy U:
Electronic energy                ...   -337.58123428 Eh
Zero point energy                ...      0.01154603 Eh       7.25 kcal/mol
Thermal vibrational correction   ...      0.00050256 Eh       0.32 kcal/mol
Thermal rotational correction    ...      0.00141627 Eh       0.89 kcal/mol
Thermal translational correction ...      0.00141627 Eh       0.89 kcal/mol
-----------------------------------------------------------------------
Total thermal energy                   -337.56635315 Eh

Summary of corrections to the electronic energy:
(perhaps to be used in another calculation)
Total thermal correction                  0.00333510 Eh       2.09 kcal/mol
Non-thermal (ZPE) correction              0.01154603 Eh       7.25 kcal/mol
-----------------------------------------------------------------------
Total correction                          0.01488113 Eh       9.34 kcal/mol

--------
ENTHALPY
--------

The enthalpy is H = U + kB*T
                kB is Boltzmann's constant
Total free energy                 ...   -337.56635315 Eh
Thermal Enthalpy correction       ...      0.00094421 Eh       0.59 kcal/mol
-----------------------------------------------------------------------
Total Enthalpy                    ...   -337.56540894 Eh

Note: Rotational entropy computed according to Herzberg
Infrared and Raman Spectra, Chapter V,1, Van Nostrand Reinhold, 1945
Point Group:  Cs, Symmetry Number:   1
Rotational constants in cm-1:     0.383083     0.383018     0.213998

Vibrational entropy computed according to the QRRHO of S. Grimme
Chem.Eur.J. 2012 18 9955

-------
ENTROPY
-------

The entropy contributions are T*S = T*(S(el)+S(vib)+S(rot)+S(trans))
     S(el)   - electronic entropy
     S(vib)  - vibrational entropy
     S(rot)  - rotational entropy
     S(trans)- translational entropy
The entropies will be listed as multiplied by the temperature to get
units of energy

Electronic entropy                ...      0.00065446 Eh      0.41 kcal/mol
Vibrational entropy               ...      0.00065250 Eh      0.41 kcal/mol
Rotational entropy                ...      0.01114470 Eh      6.99 kcal/mol
Translational entropy             ...      0.01834582 Eh     11.51 kcal/mol
-----------------------------------------------------------------------
Final entropy term                ...      0.03079748 Eh     19.33 kcal/mol

In case the symmetry of your molecule has not been determined correctly
or in case you have a reason to use a different symmetry number we print
out the resulting rotational entropy values for sn=1,12 :
 --------------------------------------------------------
|  sn= 1 | S(rot)=       0.01114470 Eh      6.99 kcal/mol|
|  sn= 2 | S(rot)=       0.01049024 Eh      6.58 kcal/mol|
|  sn= 3 | S(rot)=       0.01010741 Eh      6.34 kcal/mol|
|  sn= 4 | S(rot)=       0.00983579 Eh      6.17 kcal/mol|
|  sn= 5 | S(rot)=       0.00962510 Eh      6.04 kcal/mol|
|  sn= 6 | S(rot)=       0.00945295 Eh      5.93 kcal/mol|
|  sn= 7 | S(rot)=       0.00930741 Eh      5.84 kcal/mol|
|  sn= 8 | S(rot)=       0.00918133 Eh      5.76 kcal/mol|
|  sn= 9 | S(rot)=       0.00907012 Eh      5.69 kcal/mol|
|  sn=10 | S(rot)=       0.00897064 Eh      5.63 kcal/mol|
|  sn=11 | S(rot)=       0.00888065 Eh      5.57 kcal/mol|
|  sn=12 | S(rot)=       0.00879850 Eh      5.52 kcal/mol|
 --------------------------------------------------------

-------------------
GIBBS FREE ENERGY
-------------------

The Gibbs free energy is G = H - T*S

Total enthalpy                    ...   -337.56540894 Eh
Total entropy correction          ...     -0.03079748 Eh    -19.33 kcal/mol
-----------------------------------------------------------------------
Final Gibbs free energy         ...   -337.59620642 Eh

For completeness - the Gibbs free energy minus the electronic energy
G-E(el)                           ...     -0.01497214 Eh     -9.40 kcal/mol

                             ****ORCA TERMINATED NORMALLY****
TOTAL RUN TIME: 0 days 0 hours 2 minutes 44 seconds 517 msec
