                         Program Version 5.0.4 -  RELEASE  -
|  1> ! UKS TightSCF wB97x-D3 def2-TZVPD xyzfile opt freq
|  2>
|  3> # CF3 radical 99.0 degrees fixed
|  4>
|  5> %maxcore 1000
|  6> %pal
|  7> nprocs 18
|  8> end
|  9>
| 10> %geom Constraints
| 11>         { A * 0 * C }
| 12>     end
| 13> end
| 14> * xyz 0 2
| 15> C 0.00 0.00 0.00
| 16> F 1.1546241489 0.0000000000 -0.6293393956
| 17> F -0.5773120744 0.9999338448 -0.6293393956
| 18> F -0.5773120744 -0.9999338448 -0.6293393956
| 19> **                         ****END OF INPUT****
 Total Charge           Charge          ....    0
 Multiplicity           Mult            ....    2
 Number of Electrons    NEL             ....   33
Dispersion correction           -0.000043637
FINAL SINGLE POINT ENERGY      -337.589998169373
Dispersion correction            ... done
Dispersion correction           -0.000052368
FINAL SINGLE POINT ENERGY      -337.593726824819
Dispersion correction            ... done
Dispersion correction           -0.000053793
FINAL SINGLE POINT ENERGY      -337.593792002316
Dispersion correction            ... done
Dispersion correction           -0.000053974
FINAL SINGLE POINT ENERGY      -337.593791840930
Dispersion correction            ... done
                    ***********************HURRAY********************

CARTESIAN COORDINATES (ANGSTROEM)
---------------------------------
  C     -0.000003   -0.000000    0.012790
  F      1.185914   -0.000000   -0.633604
  F     -0.592956    1.027026   -0.633602
  F     -0.592956   -1.027026   -0.633602

 Multiplicity           Mult            ....    2
 Number of Electrons    NEL             ....   33
 Basis Dimension        Dim             ....  157

ORBITAL ENERGIES
----------------
                 SPIN UP ORBITALS
  NO   OCC          E(Eh)            E(eV)
   0   1.0000     -24.839251      -675.9104
   1   1.0000     -24.839251      -675.9104
   2   1.0000     -24.839247      -675.9103
   3   1.0000     -10.565637      -287.5056
   4   1.0000      -1.465522       -39.8789
   5   1.0000      -1.355443       -36.8835
   6   1.0000      -1.355435       -36.8833
   7   1.0000      -0.838224       -22.8092
   8   1.0000      -0.713781       -19.4230
   9   1.0000      -0.713771       -19.4227
  10   1.0000      -0.696421       -18.9506
  11   1.0000      -0.600532       -16.3413
  12   1.0000      -0.600526       -16.3411
  13   1.0000      -0.540567       -14.7096
  14   1.0000      -0.540562       -14.7094
  15   1.0000      -0.523598       -14.2478
  16   1.0000      -0.451398       -12.2832
  17   0.0000       0.072303         1.9675
  18   0.0000       0.103150         2.8068
  19   0.0000       0.103150         2.8069
  20   0.0000       0.111819         3.0428
  21   0.0000       0.156619         4.2618

                 SPIN DOWN ORBITALS
  NO   OCC          E(Eh)            E(eV)
   0   1.0000     -24.836365      -675.8318
   1   1.0000     -24.836364      -675.8318
   2   1.0000     -24.836352      -675.8315
   3   1.0000     -10.552582      -287.1504
   4   1.0000      -1.456588       -39.6358
   5   1.0000      -1.346661       -36.6445
   6   1.0000      -1.346654       -36.6443
   7   1.0000      -0.817777       -22.2528
   8   1.0000      -0.702414       -19.1137
   9   1.0000      -0.702405       -19.1134
  10   1.0000      -0.655840       -17.8463
  11   1.0000      -0.588454       -16.0127
  12   1.0000      -0.588448       -16.0125
  13   1.0000      -0.533431       -14.5154
  14   1.0000      -0.533426       -14.5153
  15   1.0000      -0.520248       -14.1567
  16   0.0000      -0.101189        -2.7535
  17   0.0000       0.082184         2.2363
  18   0.0000       0.107382         2.9220
  19   0.0000       0.107382         2.9220
  20   0.0000       0.124843         3.3972

MULLIKEN ATOMIC CHARGES AND SPIN POPULATIONS
--------------------------------------------
   0 C :    0.537494    0.769105
   1 F :   -0.179105    0.077009
   2 F :   -0.179194    0.076943
   3 F :   -0.179195    0.076943
Sum of atomic charges         :    0.0000000

LOEWDIN ATOMIC CHARGES AND SPIN POPULATIONS
-------------------------------------------
   0 C :   -0.231363    0.626334
   1 F :    0.077112    0.124575
   2 F :    0.077125    0.124545
   3 F :    0.077126    0.124545

  Mayer bond orders larger than 0.100000
B(  0-C ,  1-F ) :   1.0594 B(  0-C ,  2-F ) :   1.0591 B(  0-C ,  3-F ) :   1.0591

Dispersion correction           -0.000053977
FINAL SINGLE POINT ENERGY      -337.593791832025

DIPOLE MOMENT
-------------
                                X             Y             Z
Electronic contribution:     -0.00006      -0.00000       0.13156
Nuclear contribution   :     -0.00000      -0.00000       0.31274
                        -----------------------------------------
Total Dipole Moment    :     -0.00006      -0.00000       0.44430
                        -----------------------------------------
Magnitude (a.u.)       :      0.44430
Magnitude (Debye)      :      1.12931

Dispersion correction in the Hessian             ... done   (      0.1 sec)

VIBRATIONAL FREQUENCIES
-----------------------

Scaling factor for frequencies =  1.000000000  (already applied!)

   0:         0.00 cm**-1
   1:         0.00 cm**-1
   2:         0.00 cm**-1
   3:         0.00 cm**-1
   4:         0.00 cm**-1
   5:         0.00 cm**-1
   6:       585.66 cm**-1
   7:       586.71 cm**-1
   8:       785.64 cm**-1
   9:      1047.50 cm**-1
  10:      1047.50 cm**-1
  11:      1086.93 cm**-1

IR SPECTRUM
-----------

 Mode   freq       eps      Int      T**2         TX        TY        TZ
       cm**-1   L/(mol*cm) km/mol    a.u.
----------------------------------------------------------------------------
  6:    585.66   0.000297    1.50  0.000158  ( 0.012573 -0.000001  0.000074)
  7:    586.71   0.000291    1.47  0.000155  ( 0.000001  0.012443  0.000000)
  8:    785.64   0.002732   13.81  0.001085  (-0.000098  0.000000 -0.032942)
  9:   1047.50   0.059603  301.21  0.017757  (-0.130962  0.024603  0.000221)
 10:   1047.50   0.059568  301.03  0.017746  ( 0.024610  0.130921 -0.000042)
 11:   1086.93   0.009126   46.12  0.002620  ( 0.000503  0.000001  0.051185)

--------------------------
THERMOCHEMISTRY AT 298.15K
--------------------------

Temperature         ... 298.15 K
Pressure            ... 1.00 atm
Total Mass          ... 69.00 AMU

Throughout the following assumptions are being made:
  (1) The electronic state is orbitally nondegenerate
      but the spin degeneracy is treated
  (2) There are no thermally accessible electronically excited states
  (3) Hindered rotations indicated by low frequency modes are not
      treated as such but are treated as vibrations and this may
      cause some error
  (4) All equations used are the standard statistical mechanics
      equations for an ideal gas
  (5) All vibrations are strictly harmonic

freq.     585.66  E(vib)   ...       0.11
freq.     586.71  E(vib)   ...       0.11
freq.     785.64  E(vib)   ...       0.05
freq.    1047.50  E(vib)   ...       0.02
freq.    1047.50  E(vib)   ...       0.02
freq.    1086.93  E(vib)   ...       0.02

------------
INNER ENERGY
------------

The inner energy is: U= E(el) + E(ZPE) + E(vib) + E(rot) + E(trans)
    E(el)   - is the total energy from the electronic structure calculation
              = E(kin-el) + E(nuc-el) + E(el-el) + E(nuc-nuc)
    E(ZPE)  - the the zero temperature vibrational energy from the frequency calculation
    E(vib)  - the the finite temperature correction to E(ZPE) due to population
              of excited vibrational states
    E(rot)  - is the rotational thermal energy
    E(trans)- is the translational thermal energy

Summary of contributions to the inner energy U:
Electronic energy                ...   -337.59379183 Eh
Zero point energy                ...      0.01170966 Eh       7.35 kcal/mol
Thermal vibrational correction   ...      0.00050566 Eh       0.32 kcal/mol
Thermal rotational correction    ...      0.00141627 Eh       0.89 kcal/mol
Thermal translational correction ...      0.00141627 Eh       0.89 kcal/mol
-----------------------------------------------------------------------
Total thermal energy                   -337.57874396 Eh

Summary of corrections to the electronic energy:
(perhaps to be used in another calculation)
Total thermal correction                  0.00333821 Eh       2.09 kcal/mol
Non-thermal (ZPE) correction              0.01170966 Eh       7.35 kcal/mol
-----------------------------------------------------------------------
Total correction                          0.01504787 Eh       9.44 kcal/mol

--------
ENTHALPY
--------

The enthalpy is H = U + kB*T
                kB is Boltzmann's constant
Total free energy                 ...   -337.57874396 Eh
Thermal Enthalpy correction       ...      0.00094421 Eh       0.59 kcal/mol
-----------------------------------------------------------------------
Total Enthalpy                    ...   -337.57779976 Eh

Note: Rotational entropy computed according to Herzberg
Infrared and Raman Spectra, Chapter V,1, Van Nostrand Reinhold, 1945
Point Group:  C3v, Symmetry Number:   3
Rotational constants in cm-1:     0.381201     0.381198     0.210312

Vibrational entropy computed according to the QRRHO of S. Grimme
Chem.Eur.J. 2012 18 9955

-------
ENTROPY
-------

The entropy contributions are T*S = T*(S(el)+S(vib)+S(rot)+S(trans))
     S(el)   - electronic entropy
     S(vib)  - vibrational entropy
     S(rot)  - rotational entropy
     S(trans)- translational entropy
The entropies will be listed as multiplied by the temperature to get
units of energy

Electronic entropy                ...      0.00065446 Eh      0.41 kcal/mol
Vibrational entropy               ...      0.00065992 Eh      0.41 kcal/mol
Rotational entropy                ...      0.01012019 Eh      6.35 kcal/mol
Translational entropy             ...      0.01834582 Eh     11.51 kcal/mol
-----------------------------------------------------------------------
Final entropy term                ...      0.02978038 Eh     18.69 kcal/mol

In case the symmetry of your molecule has not been determined correctly
or in case you have a reason to use a different symmetry number we print
out the resulting rotational entropy values for sn=1,12 :
 --------------------------------------------------------
|  sn= 1 | S(rot)=       0.01115748 Eh      7.00 kcal/mol|
|  sn= 2 | S(rot)=       0.01050302 Eh      6.59 kcal/mol|
|  sn= 3 | S(rot)=       0.01012019 Eh      6.35 kcal/mol|
|  sn= 4 | S(rot)=       0.00984856 Eh      6.18 kcal/mol|
|  sn= 5 | S(rot)=       0.00963788 Eh      6.05 kcal/mol|
|  sn= 6 | S(rot)=       0.00946573 Eh      5.94 kcal/mol|
|  sn= 7 | S(rot)=       0.00932018 Eh      5.85 kcal/mol|
|  sn= 8 | S(rot)=       0.00919411 Eh      5.77 kcal/mol|
|  sn= 9 | S(rot)=       0.00908290 Eh      5.70 kcal/mol|
|  sn=10 | S(rot)=       0.00898342 Eh      5.64 kcal/mol|
|  sn=11 | S(rot)=       0.00889343 Eh      5.58 kcal/mol|
|  sn=12 | S(rot)=       0.00881127 Eh      5.53 kcal/mol|
 --------------------------------------------------------

-------------------
GIBBS FREE ENERGY
-------------------

The Gibbs free energy is G = H - T*S

Total enthalpy                    ...   -337.57779976 Eh
Total entropy correction          ...     -0.02978038 Eh    -18.69 kcal/mol
-----------------------------------------------------------------------
Final Gibbs free energy         ...   -337.60758014 Eh

For completeness - the Gibbs free energy minus the electronic energy
G-E(el)                           ...     -0.01378831 Eh     -8.65 kcal/mol

                             ****ORCA TERMINATED NORMALLY****
TOTAL RUN TIME: 0 days 0 hours 2 minutes 3 seconds 36 msec
