                         Program Version 5.0.4 -  RELEASE  -
|  1> ! UKS TightSCF wB97x-D3 def2-TZVPD xyzfile opt freq
|  2>
|  3> # CF3 radical 112.0 degrees fixed
|  4>
|  5> %maxcore 1000
|  6> %pal
|  7> nprocs 18
|  8> end
|  9>
| 10> %geom Constraints
| 11>         { A * 0 * C }
| 12>     end
| 13> end
| 14> * xyz 0 2
| 15> C 0.00 0.00 0.00
| 16> F 1.2588365227 0.0000000000 -0.3802046936
| 17> F -0.6294182614 1.0901844079 -0.3802046936
| 18> F -0.6294182614 -1.0901844079 -0.3802046936
| 19> **                         ****END OF INPUT****
 Total Charge           Charge          ....    0
 Multiplicity           Mult            ....    2
 Number of Electrons    NEL             ....   33
Dispersion correction           -0.000085330
FINAL SINGLE POINT ENERGY      -337.632608756606
Dispersion correction            ... done
Dispersion correction           -0.000084915
FINAL SINGLE POINT ENERGY      -337.632611339364
Dispersion correction            ... done
                    ***********************HURRAY********************

CARTESIAN COORDINATES (ANGSTROEM)
---------------------------------
  C      0.000246    0.000000   -0.000223
  F      1.257481    0.000000   -0.380081
  F     -0.628863    1.089583   -0.380155
  F     -0.628863   -1.089583   -0.380155

 Multiplicity           Mult            ....    2
 Number of Electrons    NEL             ....   33
 Basis Dimension        Dim             ....  157

ORBITAL ENERGIES
----------------
                 SPIN UP ORBITALS
  NO   OCC          E(Eh)            E(eV)
   0   1.0000     -24.854246      -676.3184
   1   1.0000     -24.853964      -676.3107
   2   1.0000     -24.853958      -676.3106
   3   1.0000     -10.538793      -286.7751
   4   1.0000      -1.470559       -40.0160
   5   1.0000      -1.384870       -37.6842
   6   1.0000      -1.384547       -37.6754
   7   1.0000      -0.838902       -22.8277
   8   1.0000      -0.734524       -19.9874
   9   1.0000      -0.734434       -19.9850
  10   1.0000      -0.701460       -19.0877
  11   1.0000      -0.607437       -16.5292
  12   1.0000      -0.607425       -16.5289
  13   1.0000      -0.575196       -15.6519
  14   1.0000      -0.575085       -15.6489
  15   1.0000      -0.548600       -14.9282
  16   1.0000      -0.367814       -10.0087
  17   0.0000       0.069459         1.8901
  18   0.0000       0.103559         2.8180
  19   0.0000       0.103573         2.8184
  20   0.0000       0.114768         3.1230
  21   0.0000       0.157755         4.2927

                 SPIN DOWN ORBITALS
  NO   OCC          E(Eh)            E(eV)
   0   1.0000     -24.851239      -676.2366
   1   1.0000     -24.850961      -676.2290
   2   1.0000     -24.850949      -676.2287
   3   1.0000     -10.525971      -286.4262
   4   1.0000      -1.460495       -39.7421
   5   1.0000      -1.376336       -37.4520
   6   1.0000      -1.376014       -37.4432
   7   1.0000      -0.820666       -22.3315
   8   1.0000      -0.724397       -19.7118
   9   1.0000      -0.724307       -19.7094
  10   1.0000      -0.663530       -18.0556
  11   1.0000      -0.596713       -16.2374
  12   1.0000      -0.596673       -16.2363
  13   1.0000      -0.565530       -15.3889
  14   1.0000      -0.565388       -15.3850
  15   1.0000      -0.545341       -14.8395
  16   0.0000      -0.015716        -0.4277
  17   0.0000       0.081685         2.2228
  18   0.0000       0.106978         2.9110
  19   0.0000       0.106995         2.9115
  20   0.0000       0.131266         3.5719

MULLIKEN ATOMIC CHARGES AND SPIN POPULATIONS
--------------------------------------------
   0 C :    0.530191    0.817895
   1 F :   -0.176509    0.060710
   2 F :   -0.176841    0.060698
   3 F :   -0.176840    0.060697
Sum of atomic charges         :   -0.0000000

LOEWDIN ATOMIC CHARGES AND SPIN POPULATIONS
-------------------------------------------
   0 C :   -0.417071    0.613773
   1 F :    0.139664    0.128807
   2 F :    0.138704    0.128710
   3 F :    0.138704    0.128710

  Mayer bond orders larger than 0.100000
B(  0-C ,  1-F ) :   1.0515 B(  0-C ,  2-F ) :   1.0508 B(  0-C ,  3-F ) :   1.0508

Dispersion correction           -0.000084812
FINAL SINGLE POINT ENERGY      -337.632611161587

DIPOLE MOMENT
-------------
                                X             Y             Z
Electronic contribution:      0.00164       0.00000      -0.09693
Nuclear contribution   :      0.00016       0.00000       0.18381
                        -----------------------------------------
Total Dipole Moment    :      0.00180       0.00000       0.08688
                        -----------------------------------------
Magnitude (a.u.)       :      0.08690
Magnitude (Debye)      :      0.22088

Dispersion correction in the Hessian             ... done   (      0.1 sec)

VIBRATIONAL FREQUENCIES
-----------------------

Scaling factor for frequencies =  1.000000000  (already applied!)

   0:         0.00 cm**-1
   1:         0.00 cm**-1
   2:         0.00 cm**-1
   3:         0.00 cm**-1
   4:         0.00 cm**-1
   5:         0.00 cm**-1
   6:       507.67 cm**-1
   7:       508.05 cm**-1
   8:       702.65 cm**-1
   9:      1091.34 cm**-1
  10:      1278.49 cm**-1
  11:      1281.27 cm**-1

IR SPECTRUM
-----------

 Mode   freq       eps      Int      T**2         TX        TY        TZ
       cm**-1   L/(mol*cm) km/mol    a.u.
----------------------------------------------------------------------------
  6:    507.67   0.000305    1.54  0.000187  (-0.013690 -0.000001 -0.000054)
  7:    508.05   0.000300    1.52  0.000184  ( 0.000001 -0.013580  0.000000)
  8:    702.65   0.002385   12.05  0.001059  (-0.000132 -0.000000  0.032548)
  9:   1091.34   0.007207   36.42  0.002061  ( 0.001122  0.000000  0.045382)
 10:   1278.49   0.072460  366.18  0.017687  (-0.000011 -0.132991  0.000000)
 11:   1281.27   0.072489  366.33  0.017655  (-0.132873  0.000011  0.000266)

--------------------------
THERMOCHEMISTRY AT 298.15K
--------------------------

Temperature         ... 298.15 K
Pressure            ... 1.00 atm
Total Mass          ... 69.00 AMU

Throughout the following assumptions are being made:
  (1) The electronic state is orbitally nondegenerate
      but the spin degeneracy is treated
  (2) There are no thermally accessible electronically excited states
  (3) Hindered rotations indicated by low frequency modes are not
      treated as such but are treated as vibrations and this may
      cause some error
  (4) All equations used are the standard statistical mechanics
      equations for an ideal gas
  (5) All vibrations are strictly harmonic

freq.     507.67  E(vib)   ...       0.14
freq.     508.05  E(vib)   ...       0.14
freq.     702.65  E(vib)   ...       0.07
freq.    1091.34  E(vib)   ...       0.02
freq.    1278.49  E(vib)   ...       0.01
freq.    1281.27  E(vib)   ...       0.01

------------
INNER ENERGY
------------

The inner energy is: U= E(el) + E(ZPE) + E(vib) + E(rot) + E(trans)
    E(el)   - is the total energy from the electronic structure calculation
              = E(kin-el) + E(nuc-el) + E(el-el) + E(nuc-nuc)
    E(ZPE)  - the the zero temperature vibrational energy from the frequency calculation
    E(vib)  - the the finite temperature correction to E(ZPE) due to population
              of excited vibrational states
    E(rot)  - is the rotational thermal energy
    E(trans)- is the translational thermal energy

Summary of contributions to the inner energy U:
Electronic energy                ...   -337.63261116 Eh
Zero point energy                ...      0.01223255 Eh       7.68 kcal/mol
Thermal vibrational correction   ...      0.00059844 Eh       0.38 kcal/mol
Thermal rotational correction    ...      0.00141627 Eh       0.89 kcal/mol
Thermal translational correction ...      0.00141627 Eh       0.89 kcal/mol
-----------------------------------------------------------------------
Total thermal energy                   -337.61694762 Eh

Summary of corrections to the electronic energy:
(perhaps to be used in another calculation)
Total thermal correction                  0.00343099 Eh       2.15 kcal/mol
Non-thermal (ZPE) correction              0.01223255 Eh       7.68 kcal/mol
-----------------------------------------------------------------------
Total correction                          0.01566354 Eh       9.83 kcal/mol

--------
ENTHALPY
--------

The enthalpy is H = U + kB*T
                kB is Boltzmann's constant
Total free energy                 ...   -337.61694762 Eh
Thermal Enthalpy correction       ...      0.00094421 Eh       0.59 kcal/mol
-----------------------------------------------------------------------
Total Enthalpy                    ...   -337.61600341 Eh

Note: Rotational entropy computed according to Herzberg
Infrared and Raman Spectra, Chapter V,1, Van Nostrand Reinhold, 1945
Point Group:  Cs, Symmetry Number:   1
Rotational constants in cm-1:     0.362540     0.362216     0.186943

Vibrational entropy computed according to the QRRHO of S. Grimme
Chem.Eur.J. 2012 18 9955

-------
ENTROPY
-------

The entropy contributions are T*S = T*(S(el)+S(vib)+S(rot)+S(trans))
     S(el)   - electronic entropy
     S(vib)  - vibrational entropy
     S(rot)  - rotational entropy
     S(trans)- translational entropy
The entropies will be listed as multiplied by the temperature to get
units of energy

Electronic entropy                ...      0.00065446 Eh      0.41 kcal/mol
Vibrational entropy               ...      0.00081089 Eh      0.51 kcal/mol
Rotational entropy                ...      0.01126089 Eh      7.07 kcal/mol
Translational entropy             ...      0.01834582 Eh     11.51 kcal/mol
-----------------------------------------------------------------------
Final entropy term                ...      0.03107206 Eh     19.50 kcal/mol

In case the symmetry of your molecule has not been determined correctly
or in case you have a reason to use a different symmetry number we print
out the resulting rotational entropy values for sn=1,12 :
 --------------------------------------------------------
|  sn= 1 | S(rot)=       0.01126089 Eh      7.07 kcal/mol|
|  sn= 2 | S(rot)=       0.01060644 Eh      6.66 kcal/mol|
|  sn= 3 | S(rot)=       0.01022360 Eh      6.42 kcal/mol|
|  sn= 4 | S(rot)=       0.00995198 Eh      6.24 kcal/mol|
|  sn= 5 | S(rot)=       0.00974129 Eh      6.11 kcal/mol|
|  sn= 6 | S(rot)=       0.00956915 Eh      6.00 kcal/mol|
|  sn= 7 | S(rot)=       0.00942360 Eh      5.91 kcal/mol|
|  sn= 8 | S(rot)=       0.00929752 Eh      5.83 kcal/mol|
|  sn= 9 | S(rot)=       0.00918631 Eh      5.76 kcal/mol|
|  sn=10 | S(rot)=       0.00908683 Eh      5.70 kcal/mol|
|  sn=11 | S(rot)=       0.00899684 Eh      5.65 kcal/mol|
|  sn=12 | S(rot)=       0.00891469 Eh      5.59 kcal/mol|
 --------------------------------------------------------

-------------------
GIBBS FREE ENERGY
-------------------

The Gibbs free energy is G = H - T*S

Total enthalpy                    ...   -337.61600341 Eh
Total entropy correction          ...     -0.03107206 Eh    -19.50 kcal/mol
-----------------------------------------------------------------------
Final Gibbs free energy         ...   -337.64707547 Eh

For completeness - the Gibbs free energy minus the electronic energy
G-E(el)                           ...     -0.01446431 Eh     -9.08 kcal/mol

                             ****ORCA TERMINATED NORMALLY****
TOTAL RUN TIME: 0 days 0 hours 1 minutes 52 seconds 435 msec
