                         Program Version 5.0.4 -  RELEASE  -
|  1> ! UKS TightSCF wB97x-D3 def2-TZVPD xyzfile opt freq
|  2>
|  3> # CF3 radical 108.0 degrees fixed
|  4>
|  5> %maxcore 1000
|  6> %pal
|  7> nprocs 18
|  8> end
|  9>
| 10> %geom Constraints
| 11>         { A * 0 * C }
| 12>     end
| 13> end
| 14> * xyz 0 2
| 15> C 0.00 0.00 0.00
| 16> F 1.2284366520 0.0000000000 -0.4692210481
| 17> F -0.6142183260 1.0638573476 -0.4692210481
| 18> F -0.6142183260 -1.0638573476 -0.4692210481
| 19> **                         ****END OF INPUT****
 Total Charge           Charge          ....    0
 Multiplicity           Mult            ....    2
 Number of Electrons    NEL             ....   33
Dispersion correction           -0.000070650
FINAL SINGLE POINT ENERGY      -337.629243885020
Dispersion correction            ... done
Dispersion correction           -0.000072968
FINAL SINGLE POINT ENERGY      -337.629373182728
Dispersion correction            ... done
Dispersion correction           -0.000073454
FINAL SINGLE POINT ENERGY      -337.629377851185
Dispersion correction            ... done
                    ***********************HURRAY********************

CARTESIAN COORDINATES (ANGSTROEM)
---------------------------------
  C      0.000045   -0.000000    0.001753
  F      1.234492   -0.000000   -0.469794
  F     -0.617269    1.069201   -0.469811
  F     -0.617268   -1.069201   -0.469811

 Multiplicity           Mult            ....    2
 Number of Electrons    NEL             ....   33
 Basis Dimension        Dim             ....  157

ORBITAL ENERGIES
----------------
                 SPIN UP ORBITALS
  NO   OCC          E(Eh)            E(eV)
   0   1.0000     -24.849967      -676.2020
   1   1.0000     -24.849924      -676.2008
   2   1.0000     -24.849919      -676.2007
   3   1.0000     -10.546944      -286.9969
   4   1.0000      -1.471126       -40.0314
   5   1.0000      -1.377390       -37.4807
   6   1.0000      -1.377338       -37.4793
   7   1.0000      -0.839050       -22.8317
   8   1.0000      -0.729815       -19.8593
   9   1.0000      -0.729806       -19.8590
  10   1.0000      -0.700844       -19.0709
  11   1.0000      -0.606433       -16.5019
  12   1.0000      -0.606430       -16.5018
  13   1.0000      -0.565449       -15.3866
  14   1.0000      -0.565442       -15.3864
  15   1.0000      -0.541838       -14.7442
  16   1.0000      -0.397383       -10.8133
  17   0.0000       0.071368         1.9420
  18   0.0000       0.104804         2.8519
  19   0.0000       0.104806         2.8519
  20   0.0000       0.113385         3.0854
  21   0.0000       0.159971         4.3530

                 SPIN DOWN ORBITALS
  NO   OCC          E(Eh)            E(eV)
   0   1.0000     -24.846994      -676.1211
   1   1.0000     -24.846953      -676.1200
   2   1.0000     -24.846942      -676.1197
   3   1.0000     -10.534055      -286.6462
   4   1.0000      -1.461506       -39.7696
   5   1.0000      -1.368741       -37.2453
   6   1.0000      -1.368690       -37.2440
   7   1.0000      -0.820626       -22.3304
   8   1.0000      -0.719199       -19.5704
   9   1.0000      -0.719178       -19.5698
  10   1.0000      -0.662018       -18.0144
  11   1.0000      -0.595143       -16.1947
  12   1.0000      -0.595137       -16.1945
  13   1.0000      -0.556944       -15.1552
  14   1.0000      -0.556933       -15.1549
  15   1.0000      -0.538550       -14.6547
  16   0.0000      -0.044917        -1.2222
  17   0.0000       0.082205         2.2369
  18   0.0000       0.107824         2.9340
  19   0.0000       0.107827         2.9341
  20   0.0000       0.129155         3.5145

MULLIKEN ATOMIC CHARGES AND SPIN POPULATIONS
--------------------------------------------
   0 C :    0.539880    0.800420
   1 F :   -0.179876    0.066520
   2 F :   -0.180001    0.066529
   3 F :   -0.180002    0.066530
Sum of atomic charges         :    0.0000000

LOEWDIN ATOMIC CHARGES AND SPIN POPULATIONS
-------------------------------------------
   0 C :   -0.372471    0.618237
   1 F :    0.124265    0.127275
   2 F :    0.124103    0.127244
   3 F :    0.124103    0.127244

  Mayer bond orders larger than 0.100000
B(  0-C ,  1-F ) :   1.0530 B(  0-C ,  2-F ) :   1.0529 B(  0-C ,  3-F ) :   1.0529

Dispersion correction           -0.000073464
FINAL SINGLE POINT ENERGY      -337.629377880298

DIPOLE MOMENT
-------------
                                X             Y             Z
Electronic contribution:      0.00027      -0.00000      -0.02431
Nuclear contribution   :      0.00003      -0.00000       0.22815
                        -----------------------------------------
Total Dipole Moment    :      0.00030      -0.00000       0.20384
                        -----------------------------------------
Magnitude (a.u.)       :      0.20384
Magnitude (Debye)      :      0.51811

Dispersion correction in the Hessian             ... done   (      0.1 sec)

VIBRATIONAL FREQUENCIES
-----------------------

Scaling factor for frequencies =  1.000000000  (already applied!)

   0:         0.00 cm**-1
   1:         0.00 cm**-1
   2:         0.00 cm**-1
   3:         0.00 cm**-1
   4:         0.00 cm**-1
   5:         0.00 cm**-1
   6:       532.50 cm**-1
   7:       532.73 cm**-1
   8:       731.62 cm**-1
   9:      1117.07 cm**-1
  10:      1217.88 cm**-1
  11:      1218.04 cm**-1

IR SPECTRUM
-----------

 Mode   freq       eps      Int      T**2         TX        TY        TZ
       cm**-1   L/(mol*cm) km/mol    a.u.
----------------------------------------------------------------------------
  6:    532.50   0.000296    1.50  0.000173  ( 0.000002  0.013169 -0.000000)
  7:    532.73   0.000296    1.49  0.000173  (-0.013162  0.000002  0.000069)
  8:    731.62   0.002373   11.99  0.001012  ( 0.000043 -0.000000 -0.031812)
  9:   1117.07   0.008735   44.14  0.002440  (-0.000244  0.000000 -0.049397)
 10:   1217.88   0.069213  349.77  0.017735  (-0.000199  0.133172  0.000000)
 11:   1218.04   0.069279  350.11  0.017749  (-0.133226 -0.000199  0.000031)

--------------------------
THERMOCHEMISTRY AT 298.15K
--------------------------

Temperature         ... 298.15 K
Pressure            ... 1.00 atm
Total Mass          ... 69.00 AMU

Throughout the following assumptions are being made:
  (1) The electronic state is orbitally nondegenerate
      but the spin degeneracy is treated
  (2) There are no thermally accessible electronically excited states
  (3) Hindered rotations indicated by low frequency modes are not
      treated as such but are treated as vibrations and this may
      cause some error
  (4) All equations used are the standard statistical mechanics
      equations for an ideal gas
  (5) All vibrations are strictly harmonic

freq.     532.50  E(vib)   ...       0.13
freq.     532.73  E(vib)   ...       0.13
freq.     731.62  E(vib)   ...       0.06
freq.    1117.07  E(vib)   ...       0.01
freq.    1217.88  E(vib)   ...       0.01
freq.    1218.04  E(vib)   ...       0.01

------------
INNER ENERGY
------------

The inner energy is: U= E(el) + E(ZPE) + E(vib) + E(rot) + E(trans)
    E(el)   - is the total energy from the electronic structure calculation
              = E(kin-el) + E(nuc-el) + E(el-el) + E(nuc-nuc)
    E(ZPE)  - the the zero temperature vibrational energy from the frequency calculation
    E(vib)  - the the finite temperature correction to E(ZPE) due to population
              of excited vibrational states
    E(rot)  - is the rotational thermal energy
    E(trans)- is the translational thermal energy

Summary of contributions to the inner energy U:
Electronic energy                ...   -337.62937788 Eh
Zero point energy                ...      0.01218782 Eh       7.65 kcal/mol
Thermal vibrational correction   ...      0.00055728 Eh       0.35 kcal/mol
Thermal rotational correction    ...      0.00141627 Eh       0.89 kcal/mol
Thermal translational correction ...      0.00141627 Eh       0.89 kcal/mol
-----------------------------------------------------------------------
Total thermal energy                   -337.61380024 Eh

Summary of corrections to the electronic energy:
(perhaps to be used in another calculation)
Total thermal correction                  0.00338982 Eh       2.13 kcal/mol
Non-thermal (ZPE) correction              0.01218782 Eh       7.65 kcal/mol
-----------------------------------------------------------------------
Total correction                          0.01557764 Eh       9.78 kcal/mol

--------
ENTHALPY
--------

The enthalpy is H = U + kB*T
                kB is Boltzmann's constant
Total free energy                 ...   -337.61380024 Eh
Thermal Enthalpy correction       ...      0.00094421 Eh       0.59 kcal/mol
-----------------------------------------------------------------------
Total Enthalpy                    ...   -337.61285603 Eh

Note: Rotational entropy computed according to Herzberg
Infrared and Raman Spectra, Chapter V,1, Van Nostrand Reinhold, 1945
Point Group:  Cs, Symmetry Number:   1
Rotational constants in cm-1:     0.369397     0.369340     0.194064

Vibrational entropy computed according to the QRRHO of S. Grimme
Chem.Eur.J. 2012 18 9955

-------
ENTROPY
-------

The entropy contributions are T*S = T*(S(el)+S(vib)+S(rot)+S(trans))
     S(el)   - electronic entropy
     S(vib)  - vibrational entropy
     S(rot)  - rotational entropy
     S(trans)- translational entropy
The entropies will be listed as multiplied by the temperature to get
units of energy

Electronic entropy                ...      0.00065446 Eh      0.41 kcal/mol
Vibrational entropy               ...      0.00074612 Eh      0.47 kcal/mol
Rotational entropy                ...      0.01122520 Eh      7.04 kcal/mol
Translational entropy             ...      0.01834582 Eh     11.51 kcal/mol
-----------------------------------------------------------------------
Final entropy term                ...      0.03097160 Eh     19.43 kcal/mol

In case the symmetry of your molecule has not been determined correctly
or in case you have a reason to use a different symmetry number we print
out the resulting rotational entropy values for sn=1,12 :
 --------------------------------------------------------
|  sn= 1 | S(rot)=       0.01122520 Eh      7.04 kcal/mol|
|  sn= 2 | S(rot)=       0.01057074 Eh      6.63 kcal/mol|
|  sn= 3 | S(rot)=       0.01018791 Eh      6.39 kcal/mol|
|  sn= 4 | S(rot)=       0.00991629 Eh      6.22 kcal/mol|
|  sn= 5 | S(rot)=       0.00970560 Eh      6.09 kcal/mol|
|  sn= 6 | S(rot)=       0.00953346 Eh      5.98 kcal/mol|
|  sn= 7 | S(rot)=       0.00938791 Eh      5.89 kcal/mol|
|  sn= 8 | S(rot)=       0.00926183 Eh      5.81 kcal/mol|
|  sn= 9 | S(rot)=       0.00915062 Eh      5.74 kcal/mol|
|  sn=10 | S(rot)=       0.00905114 Eh      5.68 kcal/mol|
|  sn=11 | S(rot)=       0.00896115 Eh      5.62 kcal/mol|
|  sn=12 | S(rot)=       0.00887900 Eh      5.57 kcal/mol|
 --------------------------------------------------------

-------------------
GIBBS FREE ENERGY
-------------------

The Gibbs free energy is G = H - T*S

Total enthalpy                    ...   -337.61285603 Eh
Total entropy correction          ...     -0.03097160 Eh    -19.43 kcal/mol
-----------------------------------------------------------------------
Final Gibbs free energy         ...   -337.64382763 Eh

For completeness - the Gibbs free energy minus the electronic energy
G-E(el)                           ...     -0.01444975 Eh     -9.07 kcal/mol

                             ****ORCA TERMINATED NORMALLY****
TOTAL RUN TIME: 0 days 0 hours 2 minutes 25 seconds 19 msec
