                         Program Version 5.0.4 -  RELEASE  -
|  1> ! UKS TightSCF wB97x-D3 def2-TZVPD xyzfile opt freq
|  2>
|  3> # CF3 radical 105.5 degrees fixed
|  4>
|  5> %maxcore 1000
|  6> %pal
|  7> nprocs 18
|  8> end
|  9>
| 10> %geom Constraints
| 11>         { A * 0 * C }
| 12>     end
| 13> end
| 14> * xyz 0 2
| 15> C 0.00 0.00 0.00
| 16> F 1.2086742823 0.0000000000 -0.5180072195
| 17> F -0.6043371411 1.0467426333 -0.5180072195
| 18> F -0.6043371411 -1.0467426333 -0.5180072195
| 19> **                         ****END OF INPUT****
 Total Charge           Charge          ....    0
 Multiplicity           Mult            ....    2
 Number of Electrons    NEL             ....   33
Dispersion correction           -0.000062294
FINAL SINGLE POINT ENERGY      -337.622587752680
Dispersion correction            ... done
Dispersion correction           -0.000066469
FINAL SINGLE POINT ENERGY      -337.623083342495
Dispersion correction            ... done
Dispersion correction           -0.000067285
FINAL SINGLE POINT ENERGY      -337.623096700820
Dispersion correction            ... done
                    ***********************HURRAY********************

CARTESIAN COORDINATES (ANGSTROEM)
---------------------------------
  C     -0.000135   -0.000000    0.003838
  F      1.220805   -0.000000   -0.519325
  F     -0.610335    1.056960   -0.519267
  F     -0.610335   -1.056960   -0.519267

 Multiplicity           Mult            ....    2
 Number of Electrons    NEL             ....   33
 Basis Dimension        Dim             ....  157

ORBITAL ENERGIES
----------------
                 SPIN UP ORBITALS
  NO   OCC          E(Eh)            E(eV)
   0   1.0000     -24.847187      -676.1263
   1   1.0000     -24.847183      -676.1262
   2   1.0000     -24.847033      -676.1221
   3   1.0000     -10.551953      -287.1332
   4   1.0000      -1.470428       -40.0124
   5   1.0000      -1.371991       -37.3338
   6   1.0000      -1.371828       -37.3293
   7   1.0000      -0.838908       -22.8278
   8   1.0000      -0.726065       -19.7572
   9   1.0000      -0.726016       -19.7559
  10   1.0000      -0.699962       -19.0469
  11   1.0000      -0.605203       -16.4684
  12   1.0000      -0.605200       -16.4683
  13   1.0000      -0.558973       -15.2104
  14   1.0000      -0.558903       -15.2085
  15   1.0000      -0.537141       -14.6164
  16   1.0000      -0.413786       -11.2597
  17   0.0000       0.071957         1.9581
  18   0.0000       0.105064         2.8589
  19   0.0000       0.105069         2.8591
  20   0.0000       0.112790         3.0692
  21   0.0000       0.160734         4.3738

                 SPIN DOWN ORBITALS
  NO   OCC          E(Eh)            E(eV)
   0   1.0000     -24.844241      -676.0462
   1   1.0000     -24.844232      -676.0459
   2   1.0000     -24.844084      -676.0419
   3   1.0000     -10.539011      -286.7811
   4   1.0000      -1.461040       -39.7569
   5   1.0000      -1.363304       -37.0974
   6   1.0000      -1.363139       -37.0929
   7   1.0000      -0.820125       -22.3167
   8   1.0000      -0.715197       -19.4615
   9   1.0000      -0.715160       -19.4605
  10   1.0000      -0.660586       -17.9755
  11   1.0000      -0.593676       -16.1547
  12   1.0000      -0.593673       -16.1547
  13   1.0000      -0.550963       -14.9925
  14   1.0000      -0.550888       -14.9904
  15   1.0000      -0.533841       -14.5265
  16   0.0000      -0.061586        -1.6758
  17   0.0000       0.082307         2.2397
  18   0.0000       0.108051         2.9402
  19   0.0000       0.108058         2.9404
  20   0.0000       0.127895         3.4802

MULLIKEN ATOMIC CHARGES AND SPIN POPULATIONS
--------------------------------------------
   0 C :    0.542188    0.791108
   1 F :   -0.180807    0.069624
   2 F :   -0.180690    0.069634
   3 F :   -0.180691    0.069634
Sum of atomic charges         :    0.0000000

LOEWDIN ATOMIC CHARGES AND SPIN POPULATIONS
-------------------------------------------
   0 C :   -0.338556    0.620903
   1 F :    0.112539    0.126358
   2 F :    0.113009    0.126369
   3 F :    0.113009    0.126369

  Mayer bond orders larger than 0.100000
B(  0-C ,  1-F ) :   1.0546 B(  0-C ,  2-F ) :   1.0549 B(  0-C ,  3-F ) :   1.0549

Dispersion correction           -0.000067321
FINAL SINGLE POINT ENERGY      -337.623096695655

DIPOLE MOMENT
-------------
                                X             Y             Z
Electronic contribution:     -0.00089      -0.00000       0.02001
Nuclear contribution   :     -0.00009      -0.00000       0.25310
                        -----------------------------------------
Total Dipole Moment    :     -0.00097      -0.00000       0.27311
                        -----------------------------------------
Magnitude (a.u.)       :      0.27311
Magnitude (Debye)      :      0.69420

Dispersion correction in the Hessian             ... done   (      0.1 sec)

VIBRATIONAL FREQUENCIES
-----------------------

Scaling factor for frequencies =  1.000000000  (already applied!)

   0:         0.00 cm**-1
   1:         0.00 cm**-1
   2:         0.00 cm**-1
   3:         0.00 cm**-1
   4:         0.00 cm**-1
   5:         0.00 cm**-1
   6:       547.66 cm**-1
   7:       547.87 cm**-1
   8:       746.71 cm**-1
   9:      1118.87 cm**-1
  10:      1173.96 cm**-1
  11:      1175.74 cm**-1

IR SPECTRUM
-----------

 Mode   freq       eps      Int      T**2         TX        TY        TZ
       cm**-1   L/(mol*cm) km/mol    a.u.
----------------------------------------------------------------------------
  6:    547.66   0.000296    1.49  0.000168  ( 0.000003 -0.012978 -0.000000)
  7:    547.87   0.000294    1.49  0.000167  (-0.012939 -0.000003  0.000031)
  8:    746.71   0.002405   12.15  0.001005  ( 0.000045  0.000000  0.031703)
  9:   1118.87   0.009198   46.48  0.002565  (-0.001853  0.000000  0.050617)
 10:   1173.96   0.066789  337.52  0.017754  (-0.133242  0.000024 -0.000701)
 11:   1175.74   0.066738  337.27  0.017714  ( 0.000024  0.133092  0.000000)

--------------------------
THERMOCHEMISTRY AT 298.15K
--------------------------

Temperature         ... 298.15 K
Pressure            ... 1.00 atm
Total Mass          ... 69.00 AMU

Throughout the following assumptions are being made:
  (1) The electronic state is orbitally nondegenerate
      but the spin degeneracy is treated
  (2) There are no thermally accessible electronically excited states
  (3) Hindered rotations indicated by low frequency modes are not
      treated as such but are treated as vibrations and this may
      cause some error
  (4) All equations used are the standard statistical mechanics
      equations for an ideal gas
  (5) All vibrations are strictly harmonic

freq.     547.66  E(vib)   ...       0.12
freq.     547.87  E(vib)   ...       0.12
freq.     746.71  E(vib)   ...       0.06
freq.    1118.87  E(vib)   ...       0.01
freq.    1173.96  E(vib)   ...       0.01
freq.    1175.74  E(vib)   ...       0.01

------------
INNER ENERGY
------------

The inner energy is: U= E(el) + E(ZPE) + E(vib) + E(rot) + E(trans)
    E(el)   - is the total energy from the electronic structure calculation
              = E(kin-el) + E(nuc-el) + E(el-el) + E(nuc-nuc)
    E(ZPE)  - the the zero temperature vibrational energy from the frequency calculation
    E(vib)  - the the finite temperature correction to E(ZPE) due to population
              of excited vibrational states
    E(rot)  - is the rotational thermal energy
    E(trans)- is the translational thermal energy

Summary of contributions to the inner energy U:
Electronic energy                ...   -337.62309670 Eh
Zero point energy                ...      0.01209893 Eh       7.59 kcal/mol
Thermal vibrational correction   ...      0.00053769 Eh       0.34 kcal/mol
Thermal rotational correction    ...      0.00141627 Eh       0.89 kcal/mol
Thermal translational correction ...      0.00141627 Eh       0.89 kcal/mol
-----------------------------------------------------------------------
Total thermal energy                   -337.60762752 Eh

Summary of corrections to the electronic energy:
(perhaps to be used in another calculation)
Total thermal correction                  0.00337024 Eh       2.11 kcal/mol
Non-thermal (ZPE) correction              0.01209893 Eh       7.59 kcal/mol
-----------------------------------------------------------------------
Total correction                          0.01546917 Eh       9.71 kcal/mol

--------
ENTHALPY
--------

The enthalpy is H = U + kB*T
                kB is Boltzmann's constant
Total free energy                 ...   -337.60762752 Eh
Thermal Enthalpy correction       ...      0.00094421 Eh       0.59 kcal/mol
-----------------------------------------------------------------------
Total Enthalpy                    ...   -337.60668332 Eh

Note: Rotational entropy computed according to Herzberg
Infrared and Raman Spectra, Chapter V,1, Van Nostrand Reinhold, 1945
Point Group:  Cs, Symmetry Number:   1
Rotational constants in cm-1:     0.373265     0.373101     0.198522

Vibrational entropy computed according to the QRRHO of S. Grimme
Chem.Eur.J. 2012 18 9955

-------
ENTROPY
-------

The entropy contributions are T*S = T*(S(el)+S(vib)+S(rot)+S(trans))
     S(el)   - electronic entropy
     S(vib)  - vibrational entropy
     S(rot)  - rotational entropy
     S(trans)- translational entropy
The entropies will be listed as multiplied by the temperature to get
units of energy

Electronic entropy                ...      0.00065446 Eh      0.41 kcal/mol
Vibrational entropy               ...      0.00071466 Eh      0.45 kcal/mol
Rotational entropy                ...      0.01120478 Eh      7.03 kcal/mol
Translational entropy             ...      0.01834582 Eh     11.51 kcal/mol
-----------------------------------------------------------------------
Final entropy term                ...      0.03091971 Eh     19.40 kcal/mol

In case the symmetry of your molecule has not been determined correctly
or in case you have a reason to use a different symmetry number we print
out the resulting rotational entropy values for sn=1,12 :
 --------------------------------------------------------
|  sn= 1 | S(rot)=       0.01120478 Eh      7.03 kcal/mol|
|  sn= 2 | S(rot)=       0.01055032 Eh      6.62 kcal/mol|
|  sn= 3 | S(rot)=       0.01016749 Eh      6.38 kcal/mol|
|  sn= 4 | S(rot)=       0.00989586 Eh      6.21 kcal/mol|
|  sn= 5 | S(rot)=       0.00968518 Eh      6.08 kcal/mol|
|  sn= 6 | S(rot)=       0.00951303 Eh      5.97 kcal/mol|
|  sn= 7 | S(rot)=       0.00936749 Eh      5.88 kcal/mol|
|  sn= 8 | S(rot)=       0.00924141 Eh      5.80 kcal/mol|
|  sn= 9 | S(rot)=       0.00913020 Eh      5.73 kcal/mol|
|  sn=10 | S(rot)=       0.00903072 Eh      5.67 kcal/mol|
|  sn=11 | S(rot)=       0.00894073 Eh      5.61 kcal/mol|
|  sn=12 | S(rot)=       0.00885858 Eh      5.56 kcal/mol|
 --------------------------------------------------------

-------------------
GIBBS FREE ENERGY
-------------------

The Gibbs free energy is G = H - T*S

Total enthalpy                    ...   -337.60668332 Eh
Total entropy correction          ...     -0.03091971 Eh    -19.40 kcal/mol
-----------------------------------------------------------------------
Final Gibbs free energy         ...   -337.63760302 Eh

For completeness - the Gibbs free energy minus the electronic energy
G-E(el)                           ...     -0.01450633 Eh     -9.10 kcal/mol

                             ****ORCA TERMINATED NORMALLY****
TOTAL RUN TIME: 0 days 0 hours 1 minutes 48 seconds 725 msec
