                         Program Version 5.0.4 -  RELEASE  -
|  1> ! UKS TightSCF wB97x-D3 def2-TZVPD xyzfile opt freq
|  2>
|  3> # CF3 radical 98.0 degrees fixed
|  4>
|  5> %maxcore 1000
|  6> %pal
|  7> nprocs 18
|  8> end
|  9>
| 10> %geom Constraints
| 11>         { A * 0 * C }
| 12>     end
| 13> end
| 14> * xyz 0 2
| 15> C 0.00 0.00 0.00
| 16> F 1.1459745796 0.0000000000 -0.6449552411
| 17> F -0.5729872898 0.9924430980 -0.6449552411
| 18> F -0.5729872898 -0.9924430980 -0.6449552411
| 19> **                         ****END OF INPUT****
 Total Charge           Charge          ....    0
 Multiplicity           Mult            ....    2
 Number of Electrons    NEL             ....   33
Dispersion correction           -0.000041159
FINAL SINGLE POINT ENERGY      -337.582944075260
Dispersion correction            ... done
Dispersion correction           -0.000050508
FINAL SINGLE POINT ENERGY      -337.587637244385
Dispersion correction            ... done
Dispersion correction           -0.000052001
FINAL SINGLE POINT ENERGY      -337.587716734807
Dispersion correction            ... done
Dispersion correction           -0.000052214
FINAL SINGLE POINT ENERGY      -337.587716790848
Dispersion correction            ... done
                    ***********************HURRAY********************

CARTESIAN COORDINATES (ANGSTROEM)
---------------------------------
  C      0.000034   -0.000000    0.014681
  F      1.180712   -0.000000   -0.649836
  F     -0.590373    1.022593   -0.649855
  F     -0.590373   -1.022593   -0.649855

 Multiplicity           Mult            ....    2
 Number of Electrons    NEL             ....   33
 Basis Dimension        Dim             ....  157

ORBITAL ENERGIES
----------------
                 SPIN UP ORBITALS
  NO   OCC          E(Eh)            E(eV)
   0   1.0000     -24.838000      -675.8763
   1   1.0000     -24.837962      -675.8753
   2   1.0000     -24.837959      -675.8752
   3   1.0000     -10.567861      -287.5661
   4   1.0000      -1.464386       -39.8480
   5   1.0000      -1.352672       -36.8081
   6   1.0000      -1.352642       -36.8073
   7   1.0000      -0.838107       -22.8061
   8   1.0000      -0.711592       -19.3634
   9   1.0000      -0.711591       -19.3634
  10   1.0000      -0.695736       -18.9319
  11   1.0000      -0.599659       -16.3175
  12   1.0000      -0.599652       -16.3174
  13   1.0000      -0.537569       -14.6280
  14   1.0000      -0.537559       -14.6277
  15   1.0000      -0.521365       -14.1871
  16   1.0000      -0.456674       -12.4267
  17   0.0000       0.072252         1.9661
  18   0.0000       0.102329         2.7845
  19   0.0000       0.102331         2.7846
  20   0.0000       0.111714         3.0399
  21   0.0000       0.154703         4.2097

                 SPIN DOWN ORBITALS
  NO   OCC          E(Eh)            E(eV)
   0   1.0000     -24.835117      -675.7979
   1   1.0000     -24.835082      -675.7969
   2   1.0000     -24.835073      -675.7967
   3   1.0000     -10.554795      -287.2106
   4   1.0000      -1.455502       -39.6062
   5   1.0000      -1.343873       -36.5686
   6   1.0000      -1.343841       -36.5678
   7   1.0000      -0.817310       -22.2401
   8   1.0000      -0.700159       -19.0523
   9   1.0000      -0.700159       -19.0523
  10   1.0000      -0.655012       -17.8238
  11   1.0000      -0.587487       -15.9863
  12   1.0000      -0.587482       -15.9862
  13   1.0000      -0.530536       -14.4366
  14   1.0000      -0.530526       -14.4363
  15   1.0000      -0.518004       -14.0956
  16   0.0000      -0.106923        -2.9095
  17   0.0000       0.082130         2.2349
  18   0.0000       0.107055         2.9131
  19   0.0000       0.107056         2.9132
  20   0.0000       0.124391         3.3849

MULLIKEN ATOMIC CHARGES AND SPIN POPULATIONS
--------------------------------------------
   0 C :    0.535611    0.765787
   1 F :   -0.178409    0.078122
   2 F :   -0.178600    0.078045
   3 F :   -0.178601    0.078046
Sum of atomic charges         :    0.0000000

LOEWDIN ATOMIC CHARGES AND SPIN POPULATIONS
-------------------------------------------
   0 C :   -0.212573    0.626910
   1 F :    0.070923    0.124386
   2 F :    0.070825    0.124352
   3 F :    0.070825    0.124352

  Mayer bond orders larger than 0.100000
B(  0-C ,  1-F ) :   1.0598 B(  0-C ,  2-F ) :   1.0595 B(  0-C ,  3-F ) :   1.0595

Dispersion correction           -0.000052218
FINAL SINGLE POINT ENERGY      -337.587716774632

DIPOLE MOMENT
-------------
                                X             Y             Z
Electronic contribution:      0.00017      -0.00000       0.14830
Nuclear contribution   :      0.00002      -0.00000       0.32151
                        -----------------------------------------
Total Dipole Moment    :      0.00019      -0.00000       0.46981
                        -----------------------------------------
Magnitude (a.u.)       :      0.46981
Magnitude (Debye)      :      1.19416

Dispersion correction in the Hessian             ... done   (      0.1 sec)

VIBRATIONAL FREQUENCIES
-----------------------

Scaling factor for frequencies =  1.000000000  (already applied!)

   0:         0.00 cm**-1
   1:         0.00 cm**-1
   2:         0.00 cm**-1
   3:         0.00 cm**-1
   4:         0.00 cm**-1
   5:         0.00 cm**-1
   6:       591.47 cm**-1
   7:       592.47 cm**-1
   8:       791.54 cm**-1
   9:      1025.72 cm**-1
  10:      1026.14 cm**-1
  11:      1077.84 cm**-1

IR SPECTRUM
-----------

 Mode   freq       eps      Int      T**2         TX        TY        TZ
       cm**-1   L/(mol*cm) km/mol    a.u.
----------------------------------------------------------------------------
  6:    591.47   0.000297    1.50  0.000157  ( 0.012514 -0.000000  0.000049)
  7:    592.47   0.000292    1.47  0.000154  (-0.000000 -0.012395 -0.000000)
  8:    791.54   0.002841   14.36  0.001120  ( 0.000105  0.000000  0.033467)
  9:   1025.72   0.058409  295.17  0.017770  ( 0.000172 -0.133305  0.000000)
 10:   1026.14   0.058448  295.37  0.017775  (-0.133322 -0.000172  0.000009)
 11:   1077.84   0.008953   45.24  0.002592  ( 0.000057 -0.000001 -0.050912)

--------------------------
THERMOCHEMISTRY AT 298.15K
--------------------------

Temperature         ... 298.15 K
Pressure            ... 1.00 atm
Total Mass          ... 69.00 AMU

Throughout the following assumptions are being made:
  (1) The electronic state is orbitally nondegenerate
      but the spin degeneracy is treated
  (2) There are no thermally accessible electronically excited states
  (3) Hindered rotations indicated by low frequency modes are not
      treated as such but are treated as vibrations and this may
      cause some error
  (4) All equations used are the standard statistical mechanics
      equations for an ideal gas
  (5) All vibrations are strictly harmonic

freq.     591.47  E(vib)   ...       0.10
freq.     592.47  E(vib)   ...       0.10
freq.     791.54  E(vib)   ...       0.05
freq.    1025.72  E(vib)   ...       0.02
freq.    1026.14  E(vib)   ...       0.02
freq.    1077.84  E(vib)   ...       0.02

------------
INNER ENERGY
------------

The inner energy is: U= E(el) + E(ZPE) + E(vib) + E(rot) + E(trans)
    E(el)   - is the total energy from the electronic structure calculation
              = E(kin-el) + E(nuc-el) + E(el-el) + E(nuc-nuc)
    E(ZPE)  - the the zero temperature vibrational energy from the frequency calculation
    E(vib)  - the the finite temperature correction to E(ZPE) due to population
              of excited vibrational states
    E(rot)  - is the rotational thermal energy
    E(trans)- is the translational thermal energy

Summary of contributions to the inner energy U:
Electronic energy                ...   -337.58771677 Eh
Zero point energy                ...      0.01163045 Eh       7.30 kcal/mol
Thermal vibrational correction   ...      0.00050363 Eh       0.32 kcal/mol
Thermal rotational correction    ...      0.00141627 Eh       0.89 kcal/mol
Thermal translational correction ...      0.00141627 Eh       0.89 kcal/mol
-----------------------------------------------------------------------
Total thermal energy                   -337.57275014 Eh

Summary of corrections to the electronic energy:
(perhaps to be used in another calculation)
Total thermal correction                  0.00333618 Eh       2.09 kcal/mol
Non-thermal (ZPE) correction              0.01163045 Eh       7.30 kcal/mol
-----------------------------------------------------------------------
Total correction                          0.01496663 Eh       9.39 kcal/mol

--------
ENTHALPY
--------

The enthalpy is H = U + kB*T
                kB is Boltzmann's constant
Total free energy                 ...   -337.57275014 Eh
Thermal Enthalpy correction       ...      0.00094421 Eh       0.59 kcal/mol
-----------------------------------------------------------------------
Total Enthalpy                    ...   -337.57180594 Eh

Note: Rotational entropy computed according to Herzberg
Infrared and Raman Spectra, Chapter V,1, Van Nostrand Reinhold, 1945
Point Group:  C3v, Symmetry Number:   3
Rotational constants in cm-1:     0.382184     0.382146     0.212152

Vibrational entropy computed according to the QRRHO of S. Grimme
Chem.Eur.J. 2012 18 9955

-------
ENTROPY
-------

The entropy contributions are T*S = T*(S(el)+S(vib)+S(rot)+S(trans))
     S(el)   - electronic entropy
     S(vib)  - vibrational entropy
     S(rot)  - rotational entropy
     S(trans)- translational entropy
The entropies will be listed as multiplied by the temperature to get
units of energy

Electronic entropy                ...      0.00065446 Eh      0.41 kcal/mol
Vibrational entropy               ...      0.00065556 Eh      0.41 kcal/mol
Rotational entropy                ...      0.01011368 Eh      6.35 kcal/mol
Translational entropy             ...      0.01834582 Eh     11.51 kcal/mol
-----------------------------------------------------------------------
Final entropy term                ...      0.02976951 Eh     18.68 kcal/mol

In case the symmetry of your molecule has not been determined correctly
or in case you have a reason to use a different symmetry number we print
out the resulting rotational entropy values for sn=1,12 :
 --------------------------------------------------------
|  sn= 1 | S(rot)=       0.01115097 Eh      7.00 kcal/mol|
|  sn= 2 | S(rot)=       0.01049652 Eh      6.59 kcal/mol|
|  sn= 3 | S(rot)=       0.01011368 Eh      6.35 kcal/mol|
|  sn= 4 | S(rot)=       0.00984206 Eh      6.18 kcal/mol|
|  sn= 5 | S(rot)=       0.00963137 Eh      6.04 kcal/mol|
|  sn= 6 | S(rot)=       0.00945923 Eh      5.94 kcal/mol|
|  sn= 7 | S(rot)=       0.00931368 Eh      5.84 kcal/mol|
|  sn= 8 | S(rot)=       0.00918760 Eh      5.77 kcal/mol|
|  sn= 9 | S(rot)=       0.00907640 Eh      5.70 kcal/mol|
|  sn=10 | S(rot)=       0.00897692 Eh      5.63 kcal/mol|
|  sn=11 | S(rot)=       0.00888693 Eh      5.58 kcal/mol|
|  sn=12 | S(rot)=       0.00880477 Eh      5.53 kcal/mol|
 --------------------------------------------------------

-------------------
GIBBS FREE ENERGY
-------------------

The Gibbs free energy is G = H - T*S

Total enthalpy                    ...   -337.57180594 Eh
Total entropy correction          ...     -0.02976951 Eh    -18.68 kcal/mol
-----------------------------------------------------------------------
Final Gibbs free energy         ...   -337.60157545 Eh

For completeness - the Gibbs free energy minus the electronic energy
G-E(el)                           ...     -0.01385867 Eh     -8.70 kcal/mol

                             ****ORCA TERMINATED NORMALLY****
TOTAL RUN TIME: 0 days 0 hours 2 minutes 6 seconds 252 msec
