                         Program Version 5.0.4 -  RELEASE  -
|  1> ! UKS TightSCF wB97x-D3 def2-TZVPD xyzfile opt freq
|  2>
|  3> # CF3 radical 103.5 degrees fixed
|  4>
|  5> %maxcore 1000
|  6> %pal
|  7> nprocs 18
|  8> end
|  9>
| 10> %geom Constraints
| 11>         { A * 0 * C }
| 12>     end
| 13> end
| 14> * xyz 0 2
| 15> C 0.00 0.00 0.00
| 16> F 1.1924497360 0.0000000000 -0.5543362041
| 17> F -0.5962248680 1.0326917641 -0.5543362041
| 18> F -0.5962248680 -1.0326917641 -0.5543362041
| 19> **                         ****END OF INPUT****
 Total Charge           Charge          ....    0
 Multiplicity           Mult            ....    2
 Number of Electrons    NEL             ....   33
Dispersion correction           -0.000056080
FINAL SINGLE POINT ENERGY      -337.614924185103
Dispersion correction            ... done
Dispersion correction           -0.000061728
FINAL SINGLE POINT ENERGY      -337.615982204720
Dispersion correction            ... done
Dispersion correction           -0.000062770
FINAL SINGLE POINT ENERGY      -337.616006019583
Dispersion correction            ... done
                    ***********************HURRAY********************

CARTESIAN COORDINATES (ANGSTROEM)
---------------------------------
  C     -0.000169    0.000000    0.006020
  F      1.209947    0.000000   -0.556395
  F     -0.604889    1.047494   -0.556317
  F     -0.604889   -1.047494   -0.556317

 Multiplicity           Mult            ....    2
 Number of Electrons    NEL             ....   33
 Basis Dimension        Dim             ....  157

ORBITAL ENERGIES
----------------
                 SPIN UP ORBITALS
  NO   OCC          E(Eh)            E(eV)
   0   1.0000     -24.844855      -676.0629
   1   1.0000     -24.844852      -676.0628
   2   1.0000     -24.844669      -676.0578
   3   1.0000     -10.556034      -287.2443
   4   1.0000      -1.469377       -39.9838
   5   1.0000      -1.367262       -37.2051
   6   1.0000      -1.367067       -37.1998
   7   1.0000      -0.838727       -22.8229
   8   1.0000      -0.722658       -19.6645
   9   1.0000      -0.722602       -19.6630
  10   1.0000      -0.699048       -19.0221
  11   1.0000      -0.603968       -16.4348
  12   1.0000      -0.603966       -16.4347
  13   1.0000      -0.553541       -15.0626
  14   1.0000      -0.553462       -15.0605
  15   1.0000      -0.533165       -14.5082
  16   1.0000      -0.426045       -11.5933
  17   0.0000       0.072215         1.9651
  18   0.0000       0.104943         2.8556
  19   0.0000       0.104948         2.8558
  20   0.0000       0.112420         3.0591
  21   0.0000       0.160679         4.3723

                 SPIN DOWN ORBITALS
  NO   OCC          E(Eh)            E(eV)
   0   1.0000     -24.841930      -675.9833
   1   1.0000     -24.841921      -675.9830
   2   1.0000     -24.841740      -675.9781
   3   1.0000     -10.543052      -286.8910
   4   1.0000      -1.460151       -39.7327
   5   1.0000      -1.358548       -36.9680
   6   1.0000      -1.358351       -36.9626
   7   1.0000      -0.819543       -22.3009
   8   1.0000      -0.711623       -19.3642
   9   1.0000      -0.711573       -19.3629
  10   1.0000      -0.659259       -17.9394
  11   1.0000      -0.592273       -16.1166
  12   1.0000      -0.592271       -16.1165
  13   1.0000      -0.545849       -14.8533
  14   1.0000      -0.545766       -14.8510
  15   1.0000      -0.529854       -14.4180
  16   0.0000      -0.074270        -2.0210
  17   0.0000       0.082319         2.2400
  18   0.0000       0.108060         2.9405
  19   0.0000       0.108069         2.9407
  20   0.0000       0.126927         3.4539

MULLIKEN ATOMIC CHARGES AND SPIN POPULATIONS
--------------------------------------------
   0 C :    0.542258    0.784121
   1 F :   -0.180882    0.071961
   2 F :   -0.180688    0.071960
   3 F :   -0.180688    0.071959
Sum of atomic charges         :   -0.0000000

LOEWDIN ATOMIC CHARGES AND SPIN POPULATIONS
-------------------------------------------
   0 C :   -0.308408    0.622844
   1 F :    0.102425    0.125710
   2 F :    0.102992    0.125723
   3 F :    0.102992    0.125723

  Mayer bond orders larger than 0.100000
B(  0-C ,  1-F ) :   1.0562 B(  0-C ,  2-F ) :   1.0565 B(  0-C ,  3-F ) :   1.0565

Dispersion correction           -0.000062839
FINAL SINGLE POINT ENERGY      -337.616005926565

DIPOLE MOMENT
-------------
                                X             Y             Z
Electronic contribution:     -0.00109       0.00000       0.05487
Nuclear contribution   :     -0.00011       0.00000       0.27208
                        -----------------------------------------
Total Dipole Moment    :     -0.00120       0.00000       0.32695
                        -----------------------------------------
Magnitude (a.u.)       :      0.32696
Magnitude (Debye)      :      0.83106

Dispersion correction in the Hessian             ... done   (      0.1 sec)

VIBRATIONAL FREQUENCIES
-----------------------

Scaling factor for frequencies =  1.000000000  (already applied!)

   0:         0.00 cm**-1
   1:         0.00 cm**-1
   2:         0.00 cm**-1
   3:         0.00 cm**-1
   4:         0.00 cm**-1
   5:         0.00 cm**-1
   6:       559.75 cm**-1
   7:       559.87 cm**-1
   8:       758.60 cm**-1
   9:      1114.44 cm**-1
  10:      1137.05 cm**-1
  11:      1139.08 cm**-1

IR SPECTRUM
-----------

 Mode   freq       eps      Int      T**2         TX        TY        TZ
       cm**-1   L/(mol*cm) km/mol    a.u.
----------------------------------------------------------------------------
  6:    559.75   0.000294    1.48  0.000164  (-0.012798 -0.000017 -0.000025)
  7:    559.87   0.000294    1.49  0.000164  ( 0.000017 -0.012806  0.000000)
  8:    758.60   0.002459   12.43  0.001011  ( 0.000101 -0.000000  0.031803)
  9:   1114.44   0.009449   47.75  0.002646  (-0.005598  0.000000  0.051132)
 10:   1137.05   0.064579  326.35  0.017724  (-0.133113 -0.000017 -0.002120)
 11:   1139.08   0.064618  326.55  0.017703  ( 0.000017 -0.133052  0.000000)

--------------------------
THERMOCHEMISTRY AT 298.15K
--------------------------

Temperature         ... 298.15 K
Pressure            ... 1.00 atm
Total Mass          ... 69.00 AMU

Throughout the following assumptions are being made:
  (1) The electronic state is orbitally nondegenerate
      but the spin degeneracy is treated
  (2) There are no thermally accessible electronically excited states
  (3) Hindered rotations indicated by low frequency modes are not
      treated as such but are treated as vibrations and this may
      cause some error
  (4) All equations used are the standard statistical mechanics
      equations for an ideal gas
  (5) All vibrations are strictly harmonic

freq.     559.75  E(vib)   ...       0.12
freq.     559.87  E(vib)   ...       0.12
freq.     758.60  E(vib)   ...       0.06
freq.    1114.44  E(vib)   ...       0.01
freq.    1137.05  E(vib)   ...       0.01
freq.    1139.08  E(vib)   ...       0.01

------------
INNER ENERGY
------------

The inner energy is: U= E(el) + E(ZPE) + E(vib) + E(rot) + E(trans)
    E(el)   - is the total energy from the electronic structure calculation
              = E(kin-el) + E(nuc-el) + E(el-el) + E(nuc-nuc)
    E(ZPE)  - the the zero temperature vibrational energy from the frequency calculation
    E(vib)  - the the finite temperature correction to E(ZPE) due to population
              of excited vibrational states
    E(rot)  - is the rotational thermal energy
    E(trans)- is the translational thermal energy

Summary of contributions to the inner energy U:
Electronic energy                ...   -337.61600593 Eh
Zero point energy                ...      0.01200317 Eh       7.53 kcal/mol
Thermal vibrational correction   ...      0.00052469 Eh       0.33 kcal/mol
Thermal rotational correction    ...      0.00141627 Eh       0.89 kcal/mol
Thermal translational correction ...      0.00141627 Eh       0.89 kcal/mol
-----------------------------------------------------------------------
Total thermal energy                   -337.60064552 Eh

Summary of corrections to the electronic energy:
(perhaps to be used in another calculation)
Total thermal correction                  0.00335723 Eh       2.11 kcal/mol
Non-thermal (ZPE) correction              0.01200317 Eh       7.53 kcal/mol
-----------------------------------------------------------------------
Total correction                          0.01536040 Eh       9.64 kcal/mol

--------
ENTHALPY
--------

The enthalpy is H = U + kB*T
                kB is Boltzmann's constant
Total free energy                 ...   -337.60064552 Eh
Thermal Enthalpy correction       ...      0.00094421 Eh       0.59 kcal/mol
-----------------------------------------------------------------------
Total Enthalpy                    ...   -337.59970132 Eh

Note: Rotational entropy computed according to Herzberg
Infrared and Raman Spectra, Chapter V,1, Van Nostrand Reinhold, 1945
Point Group:  Cs, Symmetry Number:   1
Rotational constants in cm-1:     0.376050     0.375848     0.202116

Vibrational entropy computed according to the QRRHO of S. Grimme
Chem.Eur.J. 2012 18 9955

-------
ENTROPY
-------

The entropy contributions are T*S = T*(S(el)+S(vib)+S(rot)+S(trans))
     S(el)   - electronic entropy
     S(vib)  - vibrational entropy
     S(rot)  - rotational entropy
     S(trans)- translational entropy
The entropies will be listed as multiplied by the temperature to get
units of energy

Electronic entropy                ...      0.00065446 Eh      0.41 kcal/mol
Vibrational entropy               ...      0.00069335 Eh      0.44 kcal/mol
Rotational entropy                ...      0.01118934 Eh      7.02 kcal/mol
Translational entropy             ...      0.01834582 Eh     11.51 kcal/mol
-----------------------------------------------------------------------
Final entropy term                ...      0.03088296 Eh     19.38 kcal/mol

In case the symmetry of your molecule has not been determined correctly
or in case you have a reason to use a different symmetry number we print
out the resulting rotational entropy values for sn=1,12 :
 --------------------------------------------------------
|  sn= 1 | S(rot)=       0.01118934 Eh      7.02 kcal/mol|
|  sn= 2 | S(rot)=       0.01053488 Eh      6.61 kcal/mol|
|  sn= 3 | S(rot)=       0.01015205 Eh      6.37 kcal/mol|
|  sn= 4 | S(rot)=       0.00988042 Eh      6.20 kcal/mol|
|  sn= 5 | S(rot)=       0.00966974 Eh      6.07 kcal/mol|
|  sn= 6 | S(rot)=       0.00949759 Eh      5.96 kcal/mol|
|  sn= 7 | S(rot)=       0.00935204 Eh      5.87 kcal/mol|
|  sn= 8 | S(rot)=       0.00922597 Eh      5.79 kcal/mol|
|  sn= 9 | S(rot)=       0.00911476 Eh      5.72 kcal/mol|
|  sn=10 | S(rot)=       0.00901528 Eh      5.66 kcal/mol|
|  sn=11 | S(rot)=       0.00892529 Eh      5.60 kcal/mol|
|  sn=12 | S(rot)=       0.00884313 Eh      5.55 kcal/mol|
 --------------------------------------------------------

-------------------
GIBBS FREE ENERGY
-------------------

The Gibbs free energy is G = H - T*S

Total enthalpy                    ...   -337.59970132 Eh
Total entropy correction          ...     -0.03088296 Eh    -19.38 kcal/mol
-----------------------------------------------------------------------
Final Gibbs free energy         ...   -337.63058427 Eh

For completeness - the Gibbs free energy minus the electronic energy
G-E(el)                           ...     -0.01457834 Eh     -9.15 kcal/mol

                             ****ORCA TERMINATED NORMALLY****
TOTAL RUN TIME: 0 days 0 hours 2 minutes 24 seconds 324 msec
