                         Program Version 5.0.4 -  RELEASE  -
|  1> ! UKS TightSCF wB97x-D3 def2-TZVPD xyzfile opt freq
|  2>
|  3> # CF3 radical 116.0 degrees fixed
|  4>
|  5> %maxcore 1000
|  6> %pal
|  7> nprocs 18
|  8> end
|  9>
| 10> %geom Constraints
| 11>         { A * 0 * C }
| 12>     end
| 13> end
| 14> * xyz 0 2
| 15> C 0.00 0.00 0.00
| 16> F 1.2877026951 0.0000000000 -0.2665459981
| 17> F -0.6438513475 1.1151832464 -0.2665459981
| 18> F -0.6438513475 -1.1151832464 -0.2665459981
| 19> **                         ****END OF INPUT****
 Total Charge           Charge          ....    0
 Multiplicity           Mult            ....    2
 Number of Electrons    NEL             ....   33
Dispersion correction           -0.000101491
FINAL SINGLE POINT ENERGY      -337.624293689582
Dispersion correction            ... done
Dispersion correction           -0.000098922
FINAL SINGLE POINT ENERGY      -337.624378486183
Dispersion correction            ... done
Dispersion correction           -0.000098277
FINAL SINGLE POINT ENERGY      -337.624382004923
Dispersion correction            ... done
                    ***********************HURRAY********************

CARTESIAN COORDINATES (ANGSTROEM)
---------------------------------
  C     -0.000130   -0.000000   -0.000831
  F      1.282557   -0.000000   -0.266287
  F     -0.641213    1.110406   -0.266260
  F     -0.641213   -1.110406   -0.266260

 Multiplicity           Mult            ....    2
 Number of Electrons    NEL             ....   33
 Basis Dimension        Dim             ....  157

ORBITAL ENERGIES
----------------
                 SPIN UP ORBITALS
  NO   OCC          E(Eh)            E(eV)
   0   1.0000     -24.857310      -676.4018
   1   1.0000     -24.857302      -676.4016
   2   1.0000     -24.857172      -676.3980
   3   1.0000     -10.528311      -286.4899
   4   1.0000      -1.467261       -39.9262
   5   1.0000      -1.389679       -37.8151
   6   1.0000      -1.389499       -37.8102
   7   1.0000      -0.837554       -22.7910
   8   1.0000      -0.736737       -20.0476
   9   1.0000      -0.736689       -20.0463
  10   1.0000      -0.700719       -19.0675
  11   1.0000      -0.606403       -16.5011
  12   1.0000      -0.606395       -16.5008
  13   1.0000      -0.583867       -15.8878
  14   1.0000      -0.583813       -15.8864
  15   1.0000      -0.553896       -15.0723
  16   1.0000      -0.331123        -9.0103
  17   0.0000       0.064864         1.7650
  18   0.0000       0.101445         2.7605
  19   0.0000       0.101451         2.7606
  20   0.0000       0.116977         3.1831
  21   0.0000       0.155177         4.2226

                 SPIN DOWN ORBITALS
  NO   OCC          E(Eh)            E(eV)
   0   1.0000     -24.854324      -676.3205
   1   1.0000     -24.854312      -676.3202
   2   1.0000     -24.854185      -676.3168
   3   1.0000     -10.515470      -286.1405
   4   1.0000      -1.456663       -39.6378
   5   1.0000      -1.381475       -37.5918
   6   1.0000      -1.381301       -37.5871
   7   1.0000      -0.818743       -22.2791
   8   1.0000      -0.727449       -19.7949
   9   1.0000      -0.727407       -19.7937
  10   1.0000      -0.663451       -18.0534
  11   1.0000      -0.596927       -16.2432
  12   1.0000      -0.596889       -16.2422
  13   1.0000      -0.571818       -15.5600
  14   1.0000      -0.571741       -15.5579
  15   1.0000      -0.550724       -14.9860
  16   0.0000       0.018648         0.5074
  17   0.0000       0.079877         2.1736
  18   0.0000       0.105526         2.8715
  19   0.0000       0.105534         2.8717
  20   0.0000       0.133199         3.6245

MULLIKEN ATOMIC CHARGES AND SPIN POPULATIONS
--------------------------------------------
   0 C :    0.513790    0.844553
   1 F :   -0.171311    0.051799
   2 F :   -0.171238    0.051823
   3 F :   -0.171241    0.051825
Sum of atomic charges         :   -0.0000000

LOEWDIN ATOMIC CHARGES AND SPIN POPULATIONS
-------------------------------------------
   0 C :   -0.449682    0.610678
   1 F :    0.149555    0.129714
   2 F :    0.150063    0.129804
   3 F :    0.150063    0.129804

  Mayer bond orders larger than 0.100000
B(  0-C ,  1-F ) :   1.0503 B(  0-C ,  2-F ) :   1.0506 B(  0-C ,  3-F ) :   1.0506

Dispersion correction           -0.000098289
FINAL SINGLE POINT ENERGY      -337.624381988971

DIPOLE MOMENT
-------------
                                X             Y             Z
Electronic contribution:     -0.00086      -0.00000      -0.16812
Nuclear contribution   :     -0.00008      -0.00000       0.12842
                        -----------------------------------------
Total Dipole Moment    :     -0.00094      -0.00000      -0.03970
                        -----------------------------------------
Magnitude (a.u.)       :      0.03971
Magnitude (Debye)      :      0.10093

Dispersion correction in the Hessian             ... done   (      0.1 sec)

VIBRATIONAL FREQUENCIES
-----------------------

Scaling factor for frequencies =  1.000000000  (already applied!)

   0:         0.00 cm**-1
   1:         0.00 cm**-1
   2:         0.00 cm**-1
   3:         0.00 cm**-1
   4:         0.00 cm**-1
   5:         0.00 cm**-1
   6:       482.96 cm**-1
   7:       483.07 cm**-1
   8:       630.20 cm**-1
   9:      1017.42 cm**-1
  10:      1338.14 cm**-1
  11:      1340.02 cm**-1

IR SPECTRUM
-----------

 Mode   freq       eps      Int      T**2         TX        TY        TZ
       cm**-1   L/(mol*cm) km/mol    a.u.
----------------------------------------------------------------------------
  6:    482.96   0.000376    1.90  0.000243  ( 0.000002  0.015585 -0.000000)
  7:    483.07   0.000376    1.90  0.000243  (-0.015592  0.000002  0.000040)
  8:    630.20   0.002309   11.67  0.001144  ( 0.000042  0.000000  0.033816)
  9:   1017.42   0.003607   18.23  0.001106  (-0.000288 -0.000000  0.033261)
 10:   1338.14   0.073417  371.02  0.017121  (-0.130848  0.000010 -0.000114)
 11:   1340.02   0.073451  371.19  0.017105  (-0.000010 -0.130787 -0.000000)

--------------------------
THERMOCHEMISTRY AT 298.15K
--------------------------

Temperature         ... 298.15 K
Pressure            ... 1.00 atm
Total Mass          ... 69.00 AMU

Throughout the following assumptions are being made:
  (1) The electronic state is orbitally nondegenerate
      but the spin degeneracy is treated
  (2) There are no thermally accessible electronically excited states
  (3) Hindered rotations indicated by low frequency modes are not
      treated as such but are treated as vibrations and this may
      cause some error
  (4) All equations used are the standard statistical mechanics
      equations for an ideal gas
  (5) All vibrations are strictly harmonic

freq.     482.96  E(vib)   ...       0.15
freq.     483.07  E(vib)   ...       0.15
freq.     630.20  E(vib)   ...       0.09
freq.    1017.42  E(vib)   ...       0.02
freq.    1338.14  E(vib)   ...       0.01
freq.    1340.02  E(vib)   ...       0.01

------------
INNER ENERGY
------------

The inner energy is: U= E(el) + E(ZPE) + E(vib) + E(rot) + E(trans)
    E(el)   - is the total energy from the electronic structure calculation
              = E(kin-el) + E(nuc-el) + E(el-el) + E(nuc-nuc)
    E(ZPE)  - the the zero temperature vibrational energy from the frequency calculation
    E(vib)  - the the finite temperature correction to E(ZPE) due to population
              of excited vibrational states
    E(rot)  - is the rotational thermal energy
    E(trans)- is the translational thermal energy

Summary of contributions to the inner energy U:
Electronic energy                ...   -337.62438199 Eh
Zero point energy                ...      0.01205564 Eh       7.57 kcal/mol
Thermal vibrational correction   ...      0.00067161 Eh       0.42 kcal/mol
Thermal rotational correction    ...      0.00141627 Eh       0.89 kcal/mol
Thermal translational correction ...      0.00141627 Eh       0.89 kcal/mol
-----------------------------------------------------------------------
Total thermal energy                   -337.60882220 Eh

Summary of corrections to the electronic energy:
(perhaps to be used in another calculation)
Total thermal correction                  0.00350415 Eh       2.20 kcal/mol
Non-thermal (ZPE) correction              0.01205564 Eh       7.57 kcal/mol
-----------------------------------------------------------------------
Total correction                          0.01555979 Eh       9.76 kcal/mol

--------
ENTHALPY
--------

The enthalpy is H = U + kB*T
                kB is Boltzmann's constant
Total free energy                 ...   -337.60882220 Eh
Thermal Enthalpy correction       ...      0.00094421 Eh       0.59 kcal/mol
-----------------------------------------------------------------------
Total Enthalpy                    ...   -337.60787799 Eh

Note: Rotational entropy computed according to Herzberg
Infrared and Raman Spectra, Chapter V,1, Van Nostrand Reinhold, 1945
Point Group:  Cs, Symmetry Number:   1
Rotational constants in cm-1:     0.354539     0.354361     0.179868

Vibrational entropy computed according to the QRRHO of S. Grimme
Chem.Eur.J. 2012 18 9955

-------
ENTROPY
-------

The entropy contributions are T*S = T*(S(el)+S(vib)+S(rot)+S(trans))
     S(el)   - electronic entropy
     S(vib)  - vibrational entropy
     S(rot)  - rotational entropy
     S(trans)- translational entropy
The entropies will be listed as multiplied by the temperature to get
units of energy

Electronic entropy                ...      0.00065446 Eh      0.41 kcal/mol
Vibrational entropy               ...      0.00092213 Eh      0.58 kcal/mol
Rotational entropy                ...      0.01129999 Eh      7.09 kcal/mol
Translational entropy             ...      0.01834582 Eh     11.51 kcal/mol
-----------------------------------------------------------------------
Final entropy term                ...      0.03122239 Eh     19.59 kcal/mol

In case the symmetry of your molecule has not been determined correctly
or in case you have a reason to use a different symmetry number we print
out the resulting rotational entropy values for sn=1,12 :
 --------------------------------------------------------
|  sn= 1 | S(rot)=       0.01129999 Eh      7.09 kcal/mol|
|  sn= 2 | S(rot)=       0.01064553 Eh      6.68 kcal/mol|
|  sn= 3 | S(rot)=       0.01026270 Eh      6.44 kcal/mol|
|  sn= 4 | S(rot)=       0.00999108 Eh      6.27 kcal/mol|
|  sn= 5 | S(rot)=       0.00978039 Eh      6.14 kcal/mol|
|  sn= 6 | S(rot)=       0.00960824 Eh      6.03 kcal/mol|
|  sn= 7 | S(rot)=       0.00946270 Eh      5.94 kcal/mol|
|  sn= 8 | S(rot)=       0.00933662 Eh      5.86 kcal/mol|
|  sn= 9 | S(rot)=       0.00922541 Eh      5.79 kcal/mol|
|  sn=10 | S(rot)=       0.00912593 Eh      5.73 kcal/mol|
|  sn=11 | S(rot)=       0.00903594 Eh      5.67 kcal/mol|
|  sn=12 | S(rot)=       0.00895379 Eh      5.62 kcal/mol|
 --------------------------------------------------------

-------------------
GIBBS FREE ENERGY
-------------------

The Gibbs free energy is G = H - T*S

Total enthalpy                    ...   -337.60787799 Eh
Total entropy correction          ...     -0.03122239 Eh    -19.59 kcal/mol
-----------------------------------------------------------------------
Final Gibbs free energy         ...   -337.63910038 Eh

For completeness - the Gibbs free energy minus the electronic energy
G-E(el)                           ...     -0.01471840 Eh     -9.24 kcal/mol

                             ****ORCA TERMINATED NORMALLY****
TOTAL RUN TIME: 0 days 0 hours 1 minutes 40 seconds 304 msec
