                         Program Version 5.0.4 -  RELEASE  -
|  1> ! UKS TightSCF wB97x-D3 def2-TZVPD xyzfile opt freq
|  2>
|  3> # CF3 radical 107.0 degrees fixed
|  4>
|  5> %maxcore 1000
|  6> %pal
|  7> nprocs 18
|  8> end
|  9>
| 10> %geom Constraints
| 11>         { A * 0 * C }
| 12>     end
| 13> end
| 14> * xyz 0 2
| 15> C 0.00 0.00 0.00
| 16> F 1.2206013439 0.0000000000 -0.4892416165
| 17> F -0.6103006720 1.0570717717 -0.4892416165
| 18> F -0.6103006720 -1.0570717717 -0.4892416165
| 19> **                         ****END OF INPUT****
 Total Charge           Charge          ....    0
 Multiplicity           Mult            ....    2
 Number of Electrons    NEL             ....   33
Dispersion correction           -0.000067230
FINAL SINGLE POINT ENERGY      -337.626976830535
Dispersion correction            ... done
Dispersion correction           -0.000070288
FINAL SINGLE POINT ENERGY      -337.627216311926
Dispersion correction            ... done
Dispersion correction           -0.000070910
FINAL SINGLE POINT ENERGY      -337.627223924430
Dispersion correction            ... done
                    ***********************HURRAY********************

CARTESIAN COORDINATES (ANGSTROEM)
---------------------------------
  C     -0.000041    0.000000    0.002505
  F      1.228991    0.000000   -0.490087
  F     -0.614475    1.064248   -0.490071
  F     -0.614475   -1.064248   -0.490071

 Multiplicity           Mult            ....    2
 Number of Electrons    NEL             ....   33
 Basis Dimension        Dim             ....  157

ORBITAL ENERGIES
----------------
                 SPIN UP ORBITALS
  NO   OCC          E(Eh)            E(eV)
   0   1.0000     -24.848855      -676.1717
   1   1.0000     -24.848850      -676.1716
   2   1.0000     -24.848802      -676.1703
   3   1.0000     -10.548945      -287.0514
   4   1.0000      -1.470936       -40.0262
   5   1.0000      -1.375280       -37.4233
   6   1.0000      -1.375226       -37.4218
   7   1.0000      -0.839009       -22.8306
   8   1.0000      -0.728383       -19.8203
   9   1.0000      -0.728363       -19.8198
  10   1.0000      -0.700531       -19.0624
  11   1.0000      -0.605987       -16.4897
  12   1.0000      -0.605987       -16.4897
  13   1.0000      -0.562898       -15.3172
  14   1.0000      -0.562868       -15.3164
  15   1.0000      -0.539999       -14.6941
  16   1.0000      -0.404105       -10.9962
  17   0.0000       0.071645         1.9496
  18   0.0000       0.104959         2.8561
  19   0.0000       0.104961         2.8561
  20   0.0000       0.113127         3.0783
  21   0.0000       0.160361         4.3636

                 SPIN DOWN ORBITALS
  NO   OCC          E(Eh)            E(eV)
   0   1.0000     -24.845894      -676.0911
   1   1.0000     -24.845885      -676.0909
   2   1.0000     -24.845837      -676.0896
   3   1.0000     -10.536035      -286.7001
   4   1.0000      -1.461412       -39.7670
   5   1.0000      -1.366614       -37.1875
   6   1.0000      -1.366560       -37.1860
   7   1.0000      -0.820461       -22.3259
   8   1.0000      -0.717654       -19.5284
   9   1.0000      -0.717647       -19.5282
  10   1.0000      -0.661481       -17.9998
  11   1.0000      -0.594596       -16.1798
  12   1.0000      -0.594596       -16.1798
  13   1.0000      -0.554605       -15.0916
  14   1.0000      -0.554573       -15.0907
  15   1.0000      -0.536706       -14.6045
  16   0.0000      -0.051706        -1.4070
  17   0.0000       0.082258         2.2384
  18   0.0000       0.107944         2.9373
  19   0.0000       0.107946         2.9374
  20   0.0000       0.128644         3.5006

MULLIKEN ATOMIC CHARGES AND SPIN POPULATIONS
--------------------------------------------
   0 C :    0.541120    0.796600
   1 F :   -0.180362    0.067793
   2 F :   -0.180377    0.067803
   3 F :   -0.180380    0.067804
Sum of atomic charges         :    0.0000000

LOEWDIN ATOMIC CHARGES AND SPIN POPULATIONS
-------------------------------------------
   0 C :   -0.359430    0.619330
   1 F :    0.119711    0.126896
   2 F :    0.119860    0.126887
   3 F :    0.119860    0.126887

  Mayer bond orders larger than 0.100000
B(  0-C ,  1-F ) :   1.0536 B(  0-C ,  2-F ) :   1.0536 B(  0-C ,  3-F ) :   1.0536

Dispersion correction           -0.000070930
FINAL SINGLE POINT ENERGY      -337.627223953003

DIPOLE MOMENT
-------------
                                X             Y             Z
Electronic contribution:     -0.00029      -0.00000      -0.00648
Nuclear contribution   :     -0.00003       0.00000       0.23832
                        -----------------------------------------
Total Dipole Moment    :     -0.00032      -0.00000       0.23184
                        -----------------------------------------
Magnitude (a.u.)       :      0.23184
Magnitude (Debye)      :      0.58929

Dispersion correction in the Hessian             ... done   (      0.1 sec)

VIBRATIONAL FREQUENCIES
-----------------------

Scaling factor for frequencies =  1.000000000  (already applied!)

   0:         0.00 cm**-1
   1:         0.00 cm**-1
   2:         0.00 cm**-1
   3:         0.00 cm**-1
   4:         0.00 cm**-1
   5:         0.00 cm**-1
   6:       538.56 cm**-1
   7:       538.86 cm**-1
   8:       737.76 cm**-1
   9:      1118.87 cm**-1
  10:      1200.73 cm**-1
  11:      1201.54 cm**-1

IR SPECTRUM
-----------

 Mode   freq       eps      Int      T**2         TX        TY        TZ
       cm**-1   L/(mol*cm) km/mol    a.u.
----------------------------------------------------------------------------
  6:    538.56   0.000296    1.50  0.000171  ( 0.000000 -0.013094 -0.000000)
  7:    538.86   0.000295    1.49  0.000171  (-0.013070 -0.000000  0.000063)
  8:    737.76   0.002382   12.04  0.001007  (-0.000008  0.000000  0.031739)
  9:   1118.87   0.008952   45.24  0.002497  ( 0.000449 -0.000000 -0.049967)
 10:   1200.73   0.068316  345.24  0.017755  ( 0.133248  0.000004  0.000202)
 11:   1201.54   0.068251  344.91  0.017726  ( 0.000004 -0.133139  0.000000)

--------------------------
THERMOCHEMISTRY AT 298.15K
--------------------------

Temperature         ... 298.15 K
Pressure            ... 1.00 atm
Total Mass          ... 69.00 AMU

Throughout the following assumptions are being made:
  (1) The electronic state is orbitally nondegenerate
      but the spin degeneracy is treated
  (2) There are no thermally accessible electronically excited states
  (3) Hindered rotations indicated by low frequency modes are not
      treated as such but are treated as vibrations and this may
      cause some error
  (4) All equations used are the standard statistical mechanics
      equations for an ideal gas
  (5) All vibrations are strictly harmonic

freq.     538.56  E(vib)   ...       0.12
freq.     538.86  E(vib)   ...       0.12
freq.     737.76  E(vib)   ...       0.06
freq.    1118.87  E(vib)   ...       0.01
freq.    1200.73  E(vib)   ...       0.01
freq.    1201.54  E(vib)   ...       0.01

------------
INNER ENERGY
------------

The inner energy is: U= E(el) + E(ZPE) + E(vib) + E(rot) + E(trans)
    E(el)   - is the total energy from the electronic structure calculation
              = E(kin-el) + E(nuc-el) + E(el-el) + E(nuc-nuc)
    E(ZPE)  - the the zero temperature vibrational energy from the frequency calculation
    E(vib)  - the the finite temperature correction to E(ZPE) due to population
              of excited vibrational states
    E(rot)  - is the rotational thermal energy
    E(trans)- is the translational thermal energy

Summary of contributions to the inner energy U:
Electronic energy                ...   -337.62722395 Eh
Zero point energy                ...      0.01215702 Eh       7.63 kcal/mol
Thermal vibrational correction   ...      0.00054895 Eh       0.34 kcal/mol
Thermal rotational correction    ...      0.00141627 Eh       0.89 kcal/mol
Thermal translational correction ...      0.00141627 Eh       0.89 kcal/mol
-----------------------------------------------------------------------
Total thermal energy                   -337.61168544 Eh

Summary of corrections to the electronic energy:
(perhaps to be used in another calculation)
Total thermal correction                  0.00338149 Eh       2.12 kcal/mol
Non-thermal (ZPE) correction              0.01215702 Eh       7.63 kcal/mol
-----------------------------------------------------------------------
Total correction                          0.01553852 Eh       9.75 kcal/mol

--------
ENTHALPY
--------

The enthalpy is H = U + kB*T
                kB is Boltzmann's constant
Total free energy                 ...   -337.61168544 Eh
Thermal Enthalpy correction       ...      0.00094421 Eh       0.59 kcal/mol
-----------------------------------------------------------------------
Total Enthalpy                    ...   -337.61074123 Eh

Note: Rotational entropy computed according to Herzberg
Infrared and Raman Spectra, Chapter V,1, Van Nostrand Reinhold, 1945
Point Group:  Cs, Symmetry Number:   1
Rotational constants in cm-1:     0.370969     0.370917     0.195844

Vibrational entropy computed according to the QRRHO of S. Grimme
Chem.Eur.J. 2012 18 9955

-------
ENTROPY
-------

The entropy contributions are T*S = T*(S(el)+S(vib)+S(rot)+S(trans))
     S(el)   - electronic entropy
     S(vib)  - vibrational entropy
     S(rot)  - rotational entropy
     S(trans)- translational entropy
The entropies will be listed as multiplied by the temperature to get
units of energy

Electronic entropy                ...      0.00065446 Eh      0.41 kcal/mol
Vibrational entropy               ...      0.00073282 Eh      0.46 kcal/mol
Rotational entropy                ...      0.01121687 Eh      7.04 kcal/mol
Translational entropy             ...      0.01834582 Eh     11.51 kcal/mol
-----------------------------------------------------------------------
Final entropy term                ...      0.03094996 Eh     19.42 kcal/mol

In case the symmetry of your molecule has not been determined correctly
or in case you have a reason to use a different symmetry number we print
out the resulting rotational entropy values for sn=1,12 :
 --------------------------------------------------------
|  sn= 1 | S(rot)=       0.01121687 Eh      7.04 kcal/mol|
|  sn= 2 | S(rot)=       0.01056242 Eh      6.63 kcal/mol|
|  sn= 3 | S(rot)=       0.01017958 Eh      6.39 kcal/mol|
|  sn= 4 | S(rot)=       0.00990796 Eh      6.22 kcal/mol|
|  sn= 5 | S(rot)=       0.00969727 Eh      6.09 kcal/mol|
|  sn= 6 | S(rot)=       0.00952513 Eh      5.98 kcal/mol|
|  sn= 7 | S(rot)=       0.00937958 Eh      5.89 kcal/mol|
|  sn= 8 | S(rot)=       0.00925350 Eh      5.81 kcal/mol|
|  sn= 9 | S(rot)=       0.00914230 Eh      5.74 kcal/mol|
|  sn=10 | S(rot)=       0.00904282 Eh      5.67 kcal/mol|
|  sn=11 | S(rot)=       0.00895283 Eh      5.62 kcal/mol|
|  sn=12 | S(rot)=       0.00887067 Eh      5.57 kcal/mol|
 --------------------------------------------------------

-------------------
GIBBS FREE ENERGY
-------------------

The Gibbs free energy is G = H - T*S

Total enthalpy                    ...   -337.61074123 Eh
Total entropy correction          ...     -0.03094996 Eh    -19.42 kcal/mol
-----------------------------------------------------------------------
Final Gibbs free energy         ...   -337.64169119 Eh

For completeness - the Gibbs free energy minus the electronic energy
G-E(el)                           ...     -0.01446724 Eh     -9.08 kcal/mol

                             ****ORCA TERMINATED NORMALLY****
TOTAL RUN TIME: 0 days 0 hours 2 minutes 27 seconds 820 msec
