                         Program Version 5.0.4 -  RELEASE  -
|  1> ! UKS TightSCF wB97x-D3 def2-TZVPD xyzfile opt freq
|  2>
|  3> # CF3 radical 97.5 degrees fixed
|  4>
|  5> %maxcore 1000
|  6> %pal
|  7> nprocs 18
|  8> end
|  9>
| 10> %geom Constraints
| 11>         { A * 0 * C }
| 12>     end
| 13> end
| 14> * xyz 0 2
| 15> C 0.00 0.00 0.00
| 16> F 1.1416170271 0.0000000000 -0.6526373905
| 17> F -0.5708085135 0.9886693468 -0.6526373905
| 18> F -0.5708085135 -0.9886693468 -0.6526373905
| 19> **                         ****END OF INPUT****
 Total Charge           Charge          ....    0
 Multiplicity           Mult            ....    2
 Number of Electrons    NEL             ....   33
Dispersion correction           -0.000039959
FINAL SINGLE POINT ENERGY      -337.579198393051
Dispersion correction            ... done
Dispersion correction           -0.000049606
FINAL SINGLE POINT ENERGY      -337.584438587390
Dispersion correction            ... done
Dispersion correction           -0.000051132
FINAL SINGLE POINT ENERGY      -337.584526139408
Dispersion correction            ... done
Dispersion correction           -0.000051362
FINAL SINGLE POINT ENERGY      -337.584526383857
Dispersion correction            ... done
                    ***********************HURRAY********************

CARTESIAN COORDINATES (ANGSTROEM)
---------------------------------
  C      0.000049   -0.000000    0.015684
  F      1.178136   -0.000000   -0.657847
  F     -0.589092    1.020389   -0.657875
  F     -0.589092   -1.020389   -0.657875

 Multiplicity           Mult            ....    2
 Number of Electrons    NEL             ....   33
 Basis Dimension        Dim             ....  157

ORBITAL ENERGIES
----------------
                 SPIN UP ORBITALS
  NO   OCC          E(Eh)            E(eV)
   0   1.0000     -24.837366      -675.8591
   1   1.0000     -24.837313      -675.8576
   2   1.0000     -24.837311      -675.8576
   3   1.0000     -10.568986      -287.5967
   4   1.0000      -1.463779       -39.8315
   5   1.0000      -1.351266       -36.7698
   6   1.0000      -1.351222       -36.7686
   7   1.0000      -0.838049       -22.8045
   8   1.0000      -0.710470       -19.3329
   9   1.0000      -0.710469       -19.3328
  10   1.0000      -0.695379       -18.9222
  11   1.0000      -0.599209       -16.3053
  12   1.0000      -0.599202       -16.3051
  13   1.0000      -0.536056       -14.5868
  14   1.0000      -0.536040       -14.5864
  15   1.0000      -0.520236       -14.1563
  16   1.0000      -0.459268       -12.4973
  17   0.0000       0.072219         1.9652
  18   0.0000       0.101838         2.7711
  19   0.0000       0.101841         2.7712
  20   0.0000       0.111663         3.0385
  21   0.0000       0.153597         4.1796

                 SPIN DOWN ORBITALS
  NO   OCC          E(Eh)            E(eV)
   0   1.0000     -24.834486      -675.7807
   1   1.0000     -24.834436      -675.7794
   2   1.0000     -24.834428      -675.7791
   3   1.0000     -10.555915      -287.2411
   4   1.0000      -1.454918       -39.5903
   5   1.0000      -1.342457       -36.5301
   6   1.0000      -1.342411       -36.5289
   7   1.0000      -0.817067       -22.2335
   8   1.0000      -0.699006       -19.0209
   9   1.0000      -0.699004       -19.0209
  10   1.0000      -0.654590       -17.8123
  11   1.0000      -0.586987       -15.9727
  12   1.0000      -0.586983       -15.9726
  13   1.0000      -0.529071       -14.3968
  14   1.0000      -0.529055       -14.3963
  15   1.0000      -0.516868       -14.0647
  16   0.0000      -0.109761        -2.9867
  17   0.0000       0.082099         2.2340
  18   0.0000       0.106861         2.9078
  19   0.0000       0.106862         2.9079
  20   0.0000       0.124166         3.3787

MULLIKEN ATOMIC CHARGES AND SPIN POPULATIONS
--------------------------------------------
   0 C :    0.534563    0.764120
   1 F :   -0.178025    0.078679
   2 F :   -0.178268    0.078600
   3 F :   -0.178270    0.078601
Sum of atomic charges         :   -0.0000000

LOEWDIN ATOMIC CHARGES AND SPIN POPULATIONS
-------------------------------------------
   0 C :   -0.202958    0.627167
   1 F :    0.067746    0.124300
   2 F :    0.067606    0.124267
   3 F :    0.067606    0.124267

  Mayer bond orders larger than 0.100000
B(  0-C ,  1-F ) :   1.0600 B(  0-C ,  2-F ) :   1.0596 B(  0-C ,  3-F ) :   1.0596

Dispersion correction           -0.000051366
FINAL SINGLE POINT ENERGY      -337.584526363234

DIPOLE MOMENT
-------------
                                X             Y             Z
Electronic contribution:      0.00026      -0.00000       0.15663
Nuclear contribution   :      0.00003      -0.00000       0.32587
                        -----------------------------------------
Total Dipole Moment    :      0.00029      -0.00000       0.48251
                        -----------------------------------------
Magnitude (a.u.)       :      0.48251
Magnitude (Debye)      :      1.22643

Dispersion correction in the Hessian             ... done   (      0.1 sec)

VIBRATIONAL FREQUENCIES
-----------------------

Scaling factor for frequencies =  1.000000000  (already applied!)

   0:         0.00 cm**-1
   1:         0.00 cm**-1
   2:         0.00 cm**-1
   3:         0.00 cm**-1
   4:         0.00 cm**-1
   5:         0.00 cm**-1
   6:       594.39 cm**-1
   7:       595.33 cm**-1
   8:       794.44 cm**-1
   9:      1014.64 cm**-1
  10:      1015.23 cm**-1
  11:      1072.92 cm**-1

IR SPECTRUM
-----------

 Mode   freq       eps      Int      T**2         TX        TY        TZ
       cm**-1   L/(mol*cm) km/mol    a.u.
----------------------------------------------------------------------------
  6:    594.39   0.000297    1.50  0.000156  (-0.012485  0.000000 -0.000034)
  7:    595.33   0.000292    1.48  0.000153  ( 0.000000  0.012376  0.000000)
  8:    794.44   0.002906   14.68  0.001141  (-0.000109 -0.000000 -0.033784)
  9:   1014.64   0.057826  292.23  0.017785  (-0.000078  0.133360 -0.000000)
 10:   1015.23   0.057866  292.43  0.017787  ( 0.133368  0.000078  0.000053)
 11:   1072.92   0.008847   44.71  0.002573  (-0.000222  0.000000  0.050726)

--------------------------
THERMOCHEMISTRY AT 298.15K
--------------------------

Temperature         ... 298.15 K
Pressure            ... 1.00 atm
Total Mass          ... 69.00 AMU

Throughout the following assumptions are being made:
  (1) The electronic state is orbitally nondegenerate
      but the spin degeneracy is treated
  (2) There are no thermally accessible electronically excited states
  (3) Hindered rotations indicated by low frequency modes are not
      treated as such but are treated as vibrations and this may
      cause some error
  (4) All equations used are the standard statistical mechanics
      equations for an ideal gas
  (5) All vibrations are strictly harmonic

freq.     594.39  E(vib)   ...       0.10
freq.     595.33  E(vib)   ...       0.10
freq.     794.44  E(vib)   ...       0.05
freq.    1014.64  E(vib)   ...       0.02
freq.    1015.23  E(vib)   ...       0.02
freq.    1072.92  E(vib)   ...       0.02

------------
INNER ENERGY
------------

The inner energy is: U= E(el) + E(ZPE) + E(vib) + E(rot) + E(trans)
    E(el)   - is the total energy from the electronic structure calculation
              = E(kin-el) + E(nuc-el) + E(el-el) + E(nuc-nuc)
    E(ZPE)  - the the zero temperature vibrational energy from the frequency calculation
    E(vib)  - the the finite temperature correction to E(ZPE) due to population
              of excited vibrational states
    E(rot)  - is the rotational thermal energy
    E(trans)- is the translational thermal energy

Summary of contributions to the inner energy U:
Electronic energy                ...   -337.58452636 Eh
Zero point energy                ...      0.01158891 Eh       7.27 kcal/mol
Thermal vibrational correction   ...      0.00050297 Eh       0.32 kcal/mol
Thermal rotational correction    ...      0.00141627 Eh       0.89 kcal/mol
Thermal translational correction ...      0.00141627 Eh       0.89 kcal/mol
-----------------------------------------------------------------------
Total thermal energy                   -337.56960194 Eh

Summary of corrections to the electronic energy:
(perhaps to be used in another calculation)
Total thermal correction                  0.00333551 Eh       2.09 kcal/mol
Non-thermal (ZPE) correction              0.01158891 Eh       7.27 kcal/mol
-----------------------------------------------------------------------
Total correction                          0.01492442 Eh       9.37 kcal/mol

--------
ENTHALPY
--------

The enthalpy is H = U + kB*T
                kB is Boltzmann's constant
Total free energy                 ...   -337.56960194 Eh
Thermal Enthalpy correction       ...      0.00094421 Eh       0.59 kcal/mol
-----------------------------------------------------------------------
Total Enthalpy                    ...   -337.56865773 Eh

Note: Rotational entropy computed according to Herzberg
Infrared and Raman Spectra, Chapter V,1, Van Nostrand Reinhold, 1945
Point Group:  Cs, Symmetry Number:   1
Rotational constants in cm-1:     0.382645     0.382591     0.213074

Vibrational entropy computed according to the QRRHO of S. Grimme
Chem.Eur.J. 2012 18 9955

-------
ENTROPY
-------

The entropy contributions are T*S = T*(S(el)+S(vib)+S(rot)+S(trans))
     S(el)   - electronic entropy
     S(vib)  - vibrational entropy
     S(rot)  - rotational entropy
     S(trans)- translational entropy
The entropies will be listed as multiplied by the temperature to get
units of energy

Electronic entropy                ...      0.00065446 Eh      0.41 kcal/mol
Vibrational entropy               ...      0.00065386 Eh      0.41 kcal/mol
Rotational entropy                ...      0.01114781 Eh      7.00 kcal/mol
Translational entropy             ...      0.01834582 Eh     11.51 kcal/mol
-----------------------------------------------------------------------
Final entropy term                ...      0.03080194 Eh     19.33 kcal/mol

In case the symmetry of your molecule has not been determined correctly
or in case you have a reason to use a different symmetry number we print
out the resulting rotational entropy values for sn=1,12 :
 --------------------------------------------------------
|  sn= 1 | S(rot)=       0.01114781 Eh      7.00 kcal/mol|
|  sn= 2 | S(rot)=       0.01049335 Eh      6.58 kcal/mol|
|  sn= 3 | S(rot)=       0.01011052 Eh      6.34 kcal/mol|
|  sn= 4 | S(rot)=       0.00983889 Eh      6.17 kcal/mol|
|  sn= 5 | S(rot)=       0.00962821 Eh      6.04 kcal/mol|
|  sn= 6 | S(rot)=       0.00945606 Eh      5.93 kcal/mol|
|  sn= 7 | S(rot)=       0.00931052 Eh      5.84 kcal/mol|
|  sn= 8 | S(rot)=       0.00918444 Eh      5.76 kcal/mol|
|  sn= 9 | S(rot)=       0.00907323 Eh      5.69 kcal/mol|
|  sn=10 | S(rot)=       0.00897375 Eh      5.63 kcal/mol|
|  sn=11 | S(rot)=       0.00888376 Eh      5.57 kcal/mol|
|  sn=12 | S(rot)=       0.00880161 Eh      5.52 kcal/mol|
 --------------------------------------------------------

-------------------
GIBBS FREE ENERGY
-------------------

The Gibbs free energy is G = H - T*S

Total enthalpy                    ...   -337.56865773 Eh
Total entropy correction          ...     -0.03080194 Eh    -19.33 kcal/mol
-----------------------------------------------------------------------
Final Gibbs free energy         ...   -337.59945967 Eh

For completeness - the Gibbs free energy minus the electronic energy
G-E(el)                           ...     -0.01493331 Eh     -9.37 kcal/mol

                             ****ORCA TERMINATED NORMALLY****
TOTAL RUN TIME: 0 days 0 hours 2 minutes 8 seconds 486 msec
