                         Program Version 5.0.4 -  RELEASE  -
|  1> ! UKS TightSCF wB97x-D3 def2-TZVPD xyzfile opt freq
|  2>
|  3> # CF3 radical 109.5 degrees fixed
|  4>
|  5> %maxcore 1000
|  6> %pal
|  7> nprocs 18
|  8> end
|  9>
| 10> %geom Constraints
| 11>         { A * 0 * C }
| 12>     end
| 13> end
| 14> * xyz 0 2
| 15> C 0.00 0.00 0.00
| 16> F 1.2400140231 0.0000000000 -0.4377102039
| 17> F -0.6200070115 1.0738836450 -0.4377102039
| 18> F -0.6200070115 -1.0738836450 -0.4377102039
| 19> **                         ****END OF INPUT****
 Total Charge           Charge          ....    0
 Multiplicity           Mult            ....    2
 Number of Electrons    NEL             ....   33
Dispersion correction           -0.000075970
FINAL SINGLE POINT ENERGY      -337.631618655465
Dispersion correction            ... done
Dispersion correction           -0.000077209
FINAL SINGLE POINT ENERGY      -337.631652782221
Dispersion correction            ... done
Dispersion correction           -0.000077480
FINAL SINGLE POINT ENERGY      -337.631654266313
Dispersion correction            ... done
                    ***********************HURRAY********************

CARTESIAN COORDINATES (ANGSTROEM)
---------------------------------
  C      0.000177   -0.000000    0.000827
  F      1.242877   -0.000000   -0.437944
  F     -0.621527    1.076763   -0.438007
  F     -0.621527   -1.076763   -0.438007

 Multiplicity           Mult            ....    2
 Number of Electrons    NEL             ....   33
 Basis Dimension        Dim             ....  157

ORBITAL ENERGIES
----------------
                 SPIN UP ORBITALS
  NO   OCC          E(Eh)            E(eV)
   0   1.0000     -24.851680      -676.2486
   1   1.0000     -24.851477      -676.2431
   2   1.0000     -24.851471      -676.2429
   3   1.0000     -10.543948      -286.9154
   4   1.0000      -1.471176       -40.0327
   5   1.0000      -1.380450       -37.5640
   6   1.0000      -1.380228       -37.5579
   7   1.0000      -0.839066       -22.8321
   8   1.0000      -0.731805       -19.9134
   9   1.0000      -0.731749       -19.9119
  10   1.0000      -0.701203       -19.0807
  11   1.0000      -0.606972       -16.5165
  12   1.0000      -0.606962       -16.5163
  13   1.0000      -0.569222       -15.4893
  14   1.0000      -0.569153       -15.4874
  15   1.0000      -0.544494       -14.8164
  16   1.0000      -0.386853       -10.5268
  17   0.0000       0.070826         1.9273
  18   0.0000       0.104448         2.8422
  19   0.0000       0.104457         2.8424
  20   0.0000       0.113832         3.0975
  21   0.0000       0.159233         4.3329

                 SPIN DOWN ORBITALS
  NO   OCC          E(Eh)            E(eV)
   0   1.0000     -24.848691      -676.1673
   1   1.0000     -24.848491      -676.1618
   2   1.0000     -24.848481      -676.1615
   3   1.0000     -10.531088      -286.5655
   4   1.0000      -1.461400       -39.7667
   5   1.0000      -1.371834       -37.3295
   6   1.0000      -1.371612       -37.3235
   7   1.0000      -0.820774       -22.3344
   8   1.0000      -0.721351       -19.6290
   9   1.0000      -0.721287       -19.6272
  10   1.0000      -0.662716       -18.0334
  11   1.0000      -0.595857       -16.2141
  12   1.0000      -0.595836       -16.2135
  13   1.0000      -0.560355       -15.2480
  14   1.0000      -0.560269       -15.2457
  15   1.0000      -0.541215       -14.7272
  16   0.0000      -0.034391        -0.9358
  17   0.0000       0.082078         2.2335
  18   0.0000       0.107573         2.9272
  19   0.0000       0.107584         2.9275
  20   0.0000       0.129936         3.5357

MULLIKEN ATOMIC CHARGES AND SPIN POPULATIONS
--------------------------------------------
   0 C :    0.537160    0.806471
   1 F :   -0.178874    0.064507
   2 F :   -0.179144    0.064512
   3 F :   -0.179141    0.064511
Sum of atomic charges         :   -0.0000000

LOEWDIN ATOMIC CHARGES AND SPIN POPULATIONS
-------------------------------------------
   0 C :   -0.390636    0.616556
   1 F :    0.130647    0.127861
   2 F :    0.129994    0.127791
   3 F :    0.129994    0.127791

  Mayer bond orders larger than 0.100000
B(  0-C ,  1-F ) :   1.0523 B(  0-C ,  2-F ) :   1.0519 B(  0-C ,  3-F ) :   1.0519

Dispersion correction           -0.000077483
FINAL SINGLE POINT ENERGY      -337.631654026999

DIPOLE MOMENT
-------------
                                X             Y             Z
Electronic contribution:      0.00112      -0.00000      -0.05132
Nuclear contribution   :      0.00011      -0.00000       0.21231
                        -----------------------------------------
Total Dipole Moment    :      0.00123      -0.00000       0.16099
                        -----------------------------------------
Magnitude (a.u.)       :      0.16099
Magnitude (Debye)      :      0.40921

Dispersion correction in the Hessian             ... done   (      0.1 sec)

VIBRATIONAL FREQUENCIES
-----------------------

Scaling factor for frequencies =  1.000000000  (already applied!)

   0:         0.00 cm**-1
   1:         0.00 cm**-1
   2:         0.00 cm**-1
   3:         0.00 cm**-1
   4:         0.00 cm**-1
   5:         0.00 cm**-1
   6:       523.34 cm**-1
   7:       523.41 cm**-1
   8:       721.94 cm**-1
   9:      1111.17 cm**-1
  10:      1241.24 cm**-1
  11:      1243.02 cm**-1

IR SPECTRUM
-----------

 Mode   freq       eps      Int      T**2         TX        TY        TZ
       cm**-1   L/(mol*cm) km/mol    a.u.
----------------------------------------------------------------------------
  6:    523.34   0.000298    1.51  0.000178  (-0.013329  0.000009  0.000028)
  7:    523.41   0.000296    1.49  0.000176  ( 0.000009  0.013275 -0.000000)
  8:    721.94   0.002369   11.97  0.001024  ( 0.000110 -0.000000 -0.031998)
  9:   1111.17   0.008306   41.97  0.002333  (-0.001010  0.000000 -0.048287)
 10:   1241.24   0.070564  356.60  0.017741  (-0.000028  0.133194  0.000000)
 11:   1243.02   0.070619  356.88  0.017729  (-0.133150 -0.000028  0.000268)

--------------------------
THERMOCHEMISTRY AT 298.15K
--------------------------

Temperature         ... 298.15 K
Pressure            ... 1.00 atm
Total Mass          ... 69.00 AMU

Throughout the following assumptions are being made:
  (1) The electronic state is orbitally nondegenerate
      but the spin degeneracy is treated
  (2) There are no thermally accessible electronically excited states
  (3) Hindered rotations indicated by low frequency modes are not
      treated as such but are treated as vibrations and this may
      cause some error
  (4) All equations used are the standard statistical mechanics
      equations for an ideal gas
  (5) All vibrations are strictly harmonic

freq.     523.34  E(vib)   ...       0.13
freq.     523.41  E(vib)   ...       0.13
freq.     721.94  E(vib)   ...       0.07
freq.    1111.17  E(vib)   ...       0.01
freq.    1241.24  E(vib)   ...       0.01
freq.    1243.02  E(vib)   ...       0.01

------------
INNER ENERGY
------------

The inner energy is: U= E(el) + E(ZPE) + E(vib) + E(rot) + E(trans)
    E(el)   - is the total energy from the electronic structure calculation
              = E(kin-el) + E(nuc-el) + E(el-el) + E(nuc-nuc)
    E(ZPE)  - the the zero temperature vibrational energy from the frequency calculation
    E(vib)  - the the finite temperature correction to E(ZPE) due to population
              of excited vibrational states
    E(rot)  - is the rotational thermal energy
    E(trans)- is the translational thermal energy

Summary of contributions to the inner energy U:
Electronic energy                ...   -337.63165403 Eh
Zero point energy                ...      0.01222037 Eh       7.67 kcal/mol
Thermal vibrational correction   ...      0.00057111 Eh       0.36 kcal/mol
Thermal rotational correction    ...      0.00141627 Eh       0.89 kcal/mol
Thermal translational correction ...      0.00141627 Eh       0.89 kcal/mol
-----------------------------------------------------------------------
Total thermal energy                   -337.61603000 Eh

Summary of corrections to the electronic energy:
(perhaps to be used in another calculation)
Total thermal correction                  0.00340365 Eh       2.14 kcal/mol
Non-thermal (ZPE) correction              0.01222037 Eh       7.67 kcal/mol
-----------------------------------------------------------------------
Total correction                          0.01562403 Eh       9.80 kcal/mol

--------
ENTHALPY
--------

The enthalpy is H = U + kB*T
                kB is Boltzmann's constant
Total free energy                 ...   -337.61603000 Eh
Thermal Enthalpy correction       ...      0.00094421 Eh       0.59 kcal/mol
-----------------------------------------------------------------------
Total Enthalpy                    ...   -337.61508579 Eh

Note: Rotational entropy computed according to Herzberg
Infrared and Raman Spectra, Chapter V,1, Van Nostrand Reinhold, 1945
Point Group:  Cs, Symmetry Number:   1
Rotational constants in cm-1:     0.366989     0.366762     0.191395

Vibrational entropy computed according to the QRRHO of S. Grimme
Chem.Eur.J. 2012 18 9955

-------
ENTROPY
-------

The entropy contributions are T*S = T*(S(el)+S(vib)+S(rot)+S(trans))
     S(el)   - electronic entropy
     S(vib)  - vibrational entropy
     S(rot)  - rotational entropy
     S(trans)- translational entropy
The entropies will be listed as multiplied by the temperature to get
units of energy

Electronic entropy                ...      0.00065446 Eh      0.41 kcal/mol
Vibrational entropy               ...      0.00076806 Eh      0.48 kcal/mol
Rotational entropy                ...      0.01123813 Eh      7.05 kcal/mol
Translational entropy             ...      0.01834582 Eh     11.51 kcal/mol
-----------------------------------------------------------------------
Final entropy term                ...      0.03100647 Eh     19.46 kcal/mol

In case the symmetry of your molecule has not been determined correctly
or in case you have a reason to use a different symmetry number we print
out the resulting rotational entropy values for sn=1,12 :
 --------------------------------------------------------
|  sn= 1 | S(rot)=       0.01123813 Eh      7.05 kcal/mol|
|  sn= 2 | S(rot)=       0.01058368 Eh      6.64 kcal/mol|
|  sn= 3 | S(rot)=       0.01020085 Eh      6.40 kcal/mol|
|  sn= 4 | S(rot)=       0.00992922 Eh      6.23 kcal/mol|
|  sn= 5 | S(rot)=       0.00971853 Eh      6.10 kcal/mol|
|  sn= 6 | S(rot)=       0.00954639 Eh      5.99 kcal/mol|
|  sn= 7 | S(rot)=       0.00940084 Eh      5.90 kcal/mol|
|  sn= 8 | S(rot)=       0.00927477 Eh      5.82 kcal/mol|
|  sn= 9 | S(rot)=       0.00916356 Eh      5.75 kcal/mol|
|  sn=10 | S(rot)=       0.00906408 Eh      5.69 kcal/mol|
|  sn=11 | S(rot)=       0.00897409 Eh      5.63 kcal/mol|
|  sn=12 | S(rot)=       0.00889193 Eh      5.58 kcal/mol|
 --------------------------------------------------------

-------------------
GIBBS FREE ENERGY
-------------------

The Gibbs free energy is G = H - T*S

Total enthalpy                    ...   -337.61508579 Eh
Total entropy correction          ...     -0.03100647 Eh    -19.46 kcal/mol
-----------------------------------------------------------------------
Final Gibbs free energy         ...   -337.64609226 Eh

For completeness - the Gibbs free energy minus the electronic energy
G-E(el)                           ...     -0.01443823 Eh     -9.06 kcal/mol

                             ****ORCA TERMINATED NORMALLY****
TOTAL RUN TIME: 0 days 0 hours 2 minutes 16 seconds 501 msec
