                         Program Version 5.0.4 -  RELEASE  -
|  1> ! UKS TightSCF wB97x-D3 def2-TZVPD xyzfile opt freq
|  2>
|  3> # CF3 radical 101.5 degrees fixed
|  4>
|  5> %maxcore 1000
|  6> %pal
|  7> nprocs 18
|  8> end
|  9>
| 10> %geom Constraints
| 11>         { A * 0 * C }
| 12>     end
| 13> end
| 14> * xyz 0 2
| 15> C 0.00 0.00 0.00
| 16> F 1.1758619580 0.0000000000 -0.5887050669
| 17> F -0.5879309790 1.0183263270 -0.5887050669
| 18> F -0.5879309790 -1.0183263270 -0.5887050669
| 19> **                         ****END OF INPUT****
 Total Charge           Charge          ....    0
 Multiplicity           Mult            ....    2
 Number of Electrons    NEL             ....   33
Dispersion correction           -0.000050287
FINAL SINGLE POINT ENERGY      -337.605184760231
Dispersion correction            ... done
Dispersion correction           -0.000057358
FINAL SINGLE POINT ENERGY      -337.607142326804
Dispersion correction            ... done
Dispersion correction           -0.000058588
FINAL SINGLE POINT ENERGY      -337.607180752195
Dispersion correction            ... done
                    ***********************HURRAY********************

CARTESIAN COORDINATES (ANGSTROEM)
---------------------------------
  C     -0.000112   -0.000000    0.008693
  F      1.199161   -0.000000   -0.591640
  F     -0.599524    1.038278   -0.591584
  F     -0.599524   -1.038278   -0.591584

 Multiplicity           Mult            ....    2
 Number of Electrons    NEL             ....   33
 Basis Dimension        Dim             ....  157

ORBITAL ENERGIES
----------------
                 SPIN UP ORBITALS
  NO   OCC          E(Eh)            E(eV)
   0   1.0000     -24.842412      -675.9964
   1   1.0000     -24.842409      -675.9963
   2   1.0000     -24.842294      -675.9932
   3   1.0000     -10.560224      -287.3583
   4   1.0000      -1.467918       -39.9441
   5   1.0000      -1.362185       -37.0669
   6   1.0000      -1.362060       -37.0635
   7   1.0000      -0.838513       -22.8171
   8   1.0000      -0.718914       -19.5626
   9   1.0000      -0.718875       -19.5616
  10   1.0000      -0.697975       -18.9929
  11   1.0000      -0.602544       -16.3961
  12   1.0000      -0.602543       -16.3960
  13   1.0000      -0.547894       -14.9090
  14   1.0000      -0.547843       -14.9076
  15   1.0000      -0.529013       -14.3952
  16   1.0000      -0.437661       -11.9094
  17   0.0000       0.072327         1.9681
  18   0.0000       0.104458         2.8424
  19   0.0000       0.104459         2.8425
  20   0.0000       0.112121         3.0510
  21   0.0000       0.159694         4.3455

                 SPIN DOWN ORBITALS
  NO   OCC          E(Eh)            E(eV)
   0   1.0000     -24.839506      -675.9173
   1   1.0000     -24.839497      -675.9171
   2   1.0000     -24.839383      -675.9140
   3   1.0000     -10.547206      -287.0041
   4   1.0000      -1.458836       -39.6969
   5   1.0000      -1.353444       -36.8291
   6   1.0000      -1.353317       -36.8256
   7   1.0000      -0.818830       -22.2815
   8   1.0000      -0.707724       -19.2582
   9   1.0000      -0.707688       -19.2572
  10   1.0000      -0.657807       -17.8998
  11   1.0000      -0.590687       -16.0734
  12   1.0000      -0.590681       -16.0733
  13   1.0000      -0.540472       -14.7070
  14   1.0000      -0.540420       -14.7056
  15   1.0000      -0.525688       -14.3047
  16   0.0000      -0.086480        -2.3532
  17   0.0000       0.082283         2.2390
  18   0.0000       0.107895         2.9360
  19   0.0000       0.107900         2.9361
  20   0.0000       0.125987         3.4283

MULLIKEN ATOMIC CHARGES AND SPIN POPULATIONS
--------------------------------------------
   0 C :    0.540934    0.777386
   1 F :   -0.180395    0.074222
   2 F :   -0.180268    0.074194
   3 F :   -0.180271    0.074197
Sum of atomic charges         :   -0.0000000

LOEWDIN ATOMIC CHARGES AND SPIN POPULATIONS
-------------------------------------------
   0 C :   -0.275721    0.624563
   1 F :    0.091664    0.125149
   2 F :    0.092029    0.125144
   3 F :    0.092029    0.125144

  Mayer bond orders larger than 0.100000
B(  0-C ,  1-F ) :   1.0577 B(  0-C ,  2-F ) :   1.0579 B(  0-C ,  3-F ) :   1.0579

Dispersion correction           -0.000058700
FINAL SINGLE POINT ENERGY      -337.607180543270

DIPOLE MOMENT
-------------
                                X             Y             Z
Electronic contribution:     -0.00073      -0.00000       0.08923
Nuclear contribution   :     -0.00007      -0.00000       0.29043
                        -----------------------------------------
Total Dipole Moment    :     -0.00080      -0.00000       0.37967
                        -----------------------------------------
Magnitude (a.u.)       :      0.37967
Magnitude (Debye)      :      0.96504

Dispersion correction in the Hessian             ... done   (      0.1 sec)

VIBRATIONAL FREQUENCIES
-----------------------

Scaling factor for frequencies =  1.000000000  (already applied!)

   0:         0.00 cm**-1
   1:         0.00 cm**-1
   2:         0.00 cm**-1
   3:         0.00 cm**-1
   4:         0.00 cm**-1
   5:         0.00 cm**-1
   6:       571.31 cm**-1
   7:       572.02 cm**-1
   8:       770.56 cm**-1
   9:      1098.46 cm**-1
  10:      1099.79 cm**-1
  11:      1105.21 cm**-1

IR SPECTRUM
-----------

 Mode   freq       eps      Int      T**2         TX        TY        TZ
       cm**-1   L/(mol*cm) km/mol    a.u.
----------------------------------------------------------------------------
  6:    571.31   0.000295    1.49  0.000161  (-0.012694  0.000001 -0.000067)
  7:    572.02   0.000292    1.48  0.000159  ( 0.000001  0.012628  0.000000)
  8:    770.56   0.002548   12.88  0.001032  (-0.000108 -0.000000 -0.032123)
  9:   1098.46   0.061936  313.00  0.017596  (-0.132550  0.000056  0.005104)
 10:   1099.79   0.062411  315.40  0.017709  ( 0.000055  0.133075 -0.000004)
 11:   1105.21   0.009874   49.90  0.002788  ( 0.013132  0.000006  0.051141)

--------------------------
THERMOCHEMISTRY AT 298.15K
--------------------------

Temperature         ... 298.15 K
Pressure            ... 1.00 atm
Total Mass          ... 69.00 AMU

Throughout the following assumptions are being made:
  (1) The electronic state is orbitally nondegenerate
      but the spin degeneracy is treated
  (2) There are no thermally accessible electronically excited states
  (3) Hindered rotations indicated by low frequency modes are not
      treated as such but are treated as vibrations and this may
      cause some error
  (4) All equations used are the standard statistical mechanics
      equations for an ideal gas
  (5) All vibrations are strictly harmonic

freq.     571.31  E(vib)   ...       0.11
freq.     572.02  E(vib)   ...       0.11
freq.     770.56  E(vib)   ...       0.05
freq.    1098.46  E(vib)   ...       0.02
freq.    1099.79  E(vib)   ...       0.02
freq.    1105.21  E(vib)   ...       0.02

------------
INNER ENERGY
------------

The inner energy is: U= E(el) + E(ZPE) + E(vib) + E(rot) + E(trans)
    E(el)   - is the total energy from the electronic structure calculation
              = E(kin-el) + E(nuc-el) + E(el-el) + E(nuc-nuc)
    E(ZPE)  - the the zero temperature vibrational energy from the frequency calculation
    E(vib)  - the the finite temperature correction to E(ZPE) due to population
              of excited vibrational states
    E(rot)  - is the rotational thermal energy
    E(trans)- is the translational thermal energy

Summary of contributions to the inner energy U:
Electronic energy                ...   -337.60718054 Eh
Zero point energy                ...      0.01188601 Eh       7.46 kcal/mol
Thermal vibrational correction   ...      0.00051434 Eh       0.32 kcal/mol
Thermal rotational correction    ...      0.00141627 Eh       0.89 kcal/mol
Thermal translational correction ...      0.00141627 Eh       0.89 kcal/mol
-----------------------------------------------------------------------
Total thermal energy                   -337.59194765 Eh

Summary of corrections to the electronic energy:
(perhaps to be used in another calculation)
Total thermal correction                  0.00334688 Eh       2.10 kcal/mol
Non-thermal (ZPE) correction              0.01188601 Eh       7.46 kcal/mol
-----------------------------------------------------------------------
Total correction                          0.01523289 Eh       9.56 kcal/mol

--------
ENTHALPY
--------

The enthalpy is H = U + kB*T
                kB is Boltzmann's constant
Total free energy                 ...   -337.59194765 Eh
Thermal Enthalpy correction       ...      0.00094421 Eh       0.59 kcal/mol
-----------------------------------------------------------------------
Total Enthalpy                    ...   -337.59100344 Eh

Note: Rotational entropy computed according to Herzberg
Infrared and Raman Spectra, Chapter V,1, Van Nostrand Reinhold, 1945
Point Group:  Cs, Symmetry Number:   1
Rotational constants in cm-1:     0.378523     0.378393     0.205741

Vibrational entropy computed according to the QRRHO of S. Grimme
Chem.Eur.J. 2012 18 9955

-------
ENTROPY
-------

The entropy contributions are T*S = T*(S(el)+S(vib)+S(rot)+S(trans))
     S(el)   - electronic entropy
     S(vib)  - vibrational entropy
     S(rot)  - rotational entropy
     S(trans)- translational entropy
The entropies will be listed as multiplied by the temperature to get
units of energy

Electronic entropy                ...      0.00065446 Eh      0.41 kcal/mol
Vibrational entropy               ...      0.00067582 Eh      0.42 kcal/mol
Rotational entropy                ...      0.01117466 Eh      7.01 kcal/mol
Translational entropy             ...      0.01834582 Eh     11.51 kcal/mol
-----------------------------------------------------------------------
Final entropy term                ...      0.03085076 Eh     19.36 kcal/mol

In case the symmetry of your molecule has not been determined correctly
or in case you have a reason to use a different symmetry number we print
out the resulting rotational entropy values for sn=1,12 :
 --------------------------------------------------------
|  sn= 1 | S(rot)=       0.01117466 Eh      7.01 kcal/mol|
|  sn= 2 | S(rot)=       0.01052021 Eh      6.60 kcal/mol|
|  sn= 3 | S(rot)=       0.01013737 Eh      6.36 kcal/mol|
|  sn= 4 | S(rot)=       0.00986575 Eh      6.19 kcal/mol|
|  sn= 5 | S(rot)=       0.00965506 Eh      6.06 kcal/mol|
|  sn= 6 | S(rot)=       0.00948292 Eh      5.95 kcal/mol|
|  sn= 7 | S(rot)=       0.00933737 Eh      5.86 kcal/mol|
|  sn= 8 | S(rot)=       0.00921129 Eh      5.78 kcal/mol|
|  sn= 9 | S(rot)=       0.00910009 Eh      5.71 kcal/mol|
|  sn=10 | S(rot)=       0.00900061 Eh      5.65 kcal/mol|
|  sn=11 | S(rot)=       0.00891062 Eh      5.59 kcal/mol|
|  sn=12 | S(rot)=       0.00882846 Eh      5.54 kcal/mol|
 --------------------------------------------------------

-------------------
GIBBS FREE ENERGY
-------------------

The Gibbs free energy is G = H - T*S

Total enthalpy                    ...   -337.59100344 Eh
Total entropy correction          ...     -0.03085076 Eh    -19.36 kcal/mol
-----------------------------------------------------------------------
Final Gibbs free energy         ...   -337.62185420 Eh

For completeness - the Gibbs free energy minus the electronic energy
G-E(el)                           ...     -0.01467366 Eh     -9.21 kcal/mol

                             ****ORCA TERMINATED NORMALLY****
TOTAL RUN TIME: 0 days 0 hours 1 minutes 46 seconds 573 msec
