                         Program Version 5.0.4 -  RELEASE  -
|  1> ! UKS TightSCF wB97x-D3 def2-TZVPD xyzfile opt freq
|  2>
|  3> # CF3 radical 111.0 degrees fixed
|  4>
|  5> %maxcore 1000
|  6> %pal
|  7> nprocs 18
|  8> end
|  9>
| 10> %geom Constraints
| 11>         { A * 0 * C }
| 12>     end
| 13> end
| 14> * xyz 0 2
| 15> C 0.00 0.00 0.00
| 16> F 1.2513789241 0.0000000000 -0.4040739886
| 17> F -0.6256894621 1.0837259380 -0.4040739886
| 18> F -0.6256894621 -1.0837259380 -0.4040739886
| 19> **                         ****END OF INPUT****
 Total Charge           Charge          ....    0
 Multiplicity           Mult            ....    2
 Number of Electrons    NEL             ....   33
Dispersion correction           -0.000081514
FINAL SINGLE POINT ENERGY      -337.632686885001
Dispersion correction            ... done
Dispersion correction           -0.000081734
FINAL SINGLE POINT ENERGY      -337.632687925715
Dispersion correction            ... done
                    ***********************HURRAY********************

CARTESIAN COORDINATES (ANGSTROEM)
---------------------------------
  C      0.000247   -0.000000    0.000133
  F      1.251558   -0.000000   -0.404065
  F     -0.625903    1.084449   -0.404145
  F     -0.625903   -1.084449   -0.404145

 Multiplicity           Mult            ....    2
 Number of Electrons    NEL             ....   33
 Basis Dimension        Dim             ....  157

ORBITAL ENERGIES
----------------
                 SPIN UP ORBITALS
  NO   OCC          E(Eh)            E(eV)
   0   1.0000     -24.853270      -676.2919
   1   1.0000     -24.852992      -676.2843
   2   1.0000     -24.852986      -676.2841
   3   1.0000     -10.540911      -286.8328
   4   1.0000      -1.470904       -40.0253
   5   1.0000      -1.383210       -37.6391
   6   1.0000      -1.382892       -37.6304
   7   1.0000      -0.839004       -22.8305
   8   1.0000      -0.733529       -19.9603
   9   1.0000      -0.733443       -19.9580
  10   1.0000      -0.701404       -19.0862
  11   1.0000      -0.607321       -16.5261
  12   1.0000      -0.607309       -16.5257
  13   1.0000      -0.572856       -15.5882
  14   1.0000      -0.572749       -15.5853
  15   1.0000      -0.547013       -14.8850
  16   1.0000      -0.375698       -10.2232
  17   0.0000       0.070090         1.9072
  18   0.0000       0.103958         2.8288
  19   0.0000       0.103971         2.8292
  20   0.0000       0.114362         3.1119
  21   0.0000       0.158372         4.3095

                 SPIN DOWN ORBITALS
  NO   OCC          E(Eh)            E(eV)
   0   1.0000     -24.850269      -676.2102
   1   1.0000     -24.849994      -676.2027
   2   1.0000     -24.849983      -676.2024
   3   1.0000     -10.528076      -286.4835
   4   1.0000      -1.460960       -39.7547
   5   1.0000      -1.374638       -37.4058
   6   1.0000      -1.374320       -37.3971
   7   1.0000      -0.820772       -22.3343
   8   1.0000      -0.723260       -19.6809
   9   1.0000      -0.723171       -19.6785
  10   1.0000      -0.663255       -18.0481
  11   1.0000      -0.596422       -16.2295
  12   1.0000      -0.596387       -16.2285
  13   1.0000      -0.563547       -15.3349
  14   1.0000      -0.563413       -15.3313
  15   1.0000      -0.543744       -14.7960
  16   0.0000      -0.023390        -0.6365
  17   0.0000       0.081876         2.2280
  18   0.0000       0.107242         2.9182
  19   0.0000       0.107258         2.9186
  20   0.0000       0.130731         3.5574

MULLIKEN ATOMIC CHARGES AND SPIN POPULATIONS
--------------------------------------------
   0 C :    0.533331    0.813059
   1 F :   -0.177551    0.062315
   2 F :   -0.177892    0.062313
   3 F :   -0.177888    0.062312
Sum of atomic charges         :   -0.0000000

LOEWDIN ATOMIC CHARGES AND SPIN POPULATIONS
-------------------------------------------
   0 C :   -0.406996    0.614872
   1 F :    0.136297    0.128438
   2 F :    0.135349    0.128345
   3 F :    0.135350    0.128345

  Mayer bond orders larger than 0.100000
B(  0-C ,  1-F ) :   1.0518 B(  0-C ,  2-F ) :   1.0511 B(  0-C ,  3-F ) :   1.0511

Dispersion correction           -0.000081794
FINAL SINGLE POINT ENERGY      -337.632687815683

DIPOLE MOMENT
-------------
                                X             Y             Z
Electronic contribution:      0.00163      -0.00000      -0.07859
Nuclear contribution   :      0.00016      -0.00000       0.19558
                        -----------------------------------------
Total Dipole Moment    :      0.00179      -0.00000       0.11699
                        -----------------------------------------
Magnitude (a.u.)       :      0.11700
Magnitude (Debye)      :      0.29740

Dispersion correction in the Hessian             ... done   (      0.1 sec)

VIBRATIONAL FREQUENCIES
-----------------------

Scaling factor for frequencies =  1.000000000  (already applied!)

   0:         0.00 cm**-1
   1:         0.00 cm**-1
   2:         0.00 cm**-1
   3:         0.00 cm**-1
   4:         0.00 cm**-1
   5:         0.00 cm**-1
   6:       513.90 cm**-1
   7:       514.23 cm**-1
   8:       711.06 cm**-1
   9:      1100.94 cm**-1
  10:      1263.65 cm**-1
  11:      1266.36 cm**-1

IR SPECTRUM
-----------

 Mode   freq       eps      Int      T**2         TX        TY        TZ
       cm**-1   L/(mol*cm) km/mol    a.u.
----------------------------------------------------------------------------
  6:    513.90   0.000301    1.52  0.000183  (-0.013518  0.000001 -0.000026)
  7:    514.23   0.000297    1.50  0.000180  ( 0.000001  0.013417  0.000000)
  8:    711.06   0.002375   12.00  0.001042  (-0.000141  0.000000  0.032282)
  9:   1100.94   0.007717   39.00  0.002187  ( 0.001220 -0.000000  0.046753)
 10:   1263.65   0.071769  362.69  0.017724  ( 0.000015 -0.133130 -0.000000)
 11:   1266.36   0.071807  362.88  0.017695  (-0.133022 -0.000016  0.000312)

--------------------------
THERMOCHEMISTRY AT 298.15K
--------------------------

Temperature         ... 298.15 K
Pressure            ... 1.00 atm
Total Mass          ... 69.00 AMU

Throughout the following assumptions are being made:
  (1) The electronic state is orbitally nondegenerate
      but the spin degeneracy is treated
  (2) There are no thermally accessible electronically excited states
  (3) Hindered rotations indicated by low frequency modes are not
      treated as such but are treated as vibrations and this may
      cause some error
  (4) All equations used are the standard statistical mechanics
      equations for an ideal gas
  (5) All vibrations are strictly harmonic

freq.     513.90  E(vib)   ...       0.13
freq.     514.23  E(vib)   ...       0.13
freq.     711.06  E(vib)   ...       0.07
freq.    1100.94  E(vib)   ...       0.02
freq.    1263.65  E(vib)   ...       0.01
freq.    1266.36  E(vib)   ...       0.01

------------
INNER ENERGY
------------

The inner energy is: U= E(el) + E(ZPE) + E(vib) + E(rot) + E(trans)
    E(el)   - is the total energy from the electronic structure calculation
              = E(kin-el) + E(nuc-el) + E(el-el) + E(nuc-nuc)
    E(ZPE)  - the the zero temperature vibrational energy from the frequency calculation
    E(vib)  - the the finite temperature correction to E(ZPE) due to population
              of excited vibrational states
    E(rot)  - is the rotational thermal energy
    E(trans)- is the translational thermal energy

Summary of contributions to the inner energy U:
Electronic energy                ...   -337.63268782 Eh
Zero point energy                ...      0.01223410 Eh       7.68 kcal/mol
Thermal vibrational correction   ...      0.00058679 Eh       0.37 kcal/mol
Thermal rotational correction    ...      0.00141627 Eh       0.89 kcal/mol
Thermal translational correction ...      0.00141627 Eh       0.89 kcal/mol
-----------------------------------------------------------------------
Total thermal energy                   -337.61703438 Eh

Summary of corrections to the electronic energy:
(perhaps to be used in another calculation)
Total thermal correction                  0.00341933 Eh       2.15 kcal/mol
Non-thermal (ZPE) correction              0.01223410 Eh       7.68 kcal/mol
-----------------------------------------------------------------------
Total correction                          0.01565343 Eh       9.82 kcal/mol

--------
ENTHALPY
--------

The enthalpy is H = U + kB*T
                kB is Boltzmann's constant
Total free energy                 ...   -337.61703438 Eh
Thermal Enthalpy correction       ...      0.00094421 Eh       0.59 kcal/mol
-----------------------------------------------------------------------
Total Enthalpy                    ...   -337.61609017 Eh

Note: Rotational entropy computed according to Herzberg
Infrared and Raman Spectra, Chapter V,1, Van Nostrand Reinhold, 1945
Point Group:  Cs, Symmetry Number:   1
Rotational constants in cm-1:     0.364374     0.364052     0.188716

Vibrational entropy computed according to the QRRHO of S. Grimme
Chem.Eur.J. 2012 18 9955

-------
ENTROPY
-------

The entropy contributions are T*S = T*(S(el)+S(vib)+S(rot)+S(trans))
     S(el)   - electronic entropy
     S(vib)  - vibrational entropy
     S(rot)  - rotational entropy
     S(trans)- translational entropy
The entropies will be listed as multiplied by the temperature to get
units of energy

Electronic entropy                ...      0.00065446 Eh      0.41 kcal/mol
Vibrational entropy               ...      0.00079271 Eh      0.50 kcal/mol
Rotational entropy                ...      0.01125166 Eh      7.06 kcal/mol
Translational entropy             ...      0.01834582 Eh     11.51 kcal/mol
-----------------------------------------------------------------------
Final entropy term                ...      0.03104465 Eh     19.48 kcal/mol

In case the symmetry of your molecule has not been determined correctly
or in case you have a reason to use a different symmetry number we print
out the resulting rotational entropy values for sn=1,12 :
 --------------------------------------------------------
|  sn= 1 | S(rot)=       0.01125166 Eh      7.06 kcal/mol|
|  sn= 2 | S(rot)=       0.01059721 Eh      6.65 kcal/mol|
|  sn= 3 | S(rot)=       0.01021438 Eh      6.41 kcal/mol|
|  sn= 4 | S(rot)=       0.00994275 Eh      6.24 kcal/mol|
|  sn= 5 | S(rot)=       0.00973206 Eh      6.11 kcal/mol|
|  sn= 6 | S(rot)=       0.00955992 Eh      6.00 kcal/mol|
|  sn= 7 | S(rot)=       0.00941437 Eh      5.91 kcal/mol|
|  sn= 8 | S(rot)=       0.00928830 Eh      5.83 kcal/mol|
|  sn= 9 | S(rot)=       0.00917709 Eh      5.76 kcal/mol|
|  sn=10 | S(rot)=       0.00907761 Eh      5.70 kcal/mol|
|  sn=11 | S(rot)=       0.00898762 Eh      5.64 kcal/mol|
|  sn=12 | S(rot)=       0.00890546 Eh      5.59 kcal/mol|
 --------------------------------------------------------

-------------------
GIBBS FREE ENERGY
-------------------

The Gibbs free energy is G = H - T*S

Total enthalpy                    ...   -337.61609017 Eh
Total entropy correction          ...     -0.03104465 Eh    -19.48 kcal/mol
-----------------------------------------------------------------------
Final Gibbs free energy         ...   -337.64713482 Eh

For completeness - the Gibbs free energy minus the electronic energy
G-E(el)                           ...     -0.01444701 Eh     -9.07 kcal/mol

                             ****ORCA TERMINATED NORMALLY****
TOTAL RUN TIME: 0 days 0 hours 1 minutes 57 seconds 659 msec
