                         Program Version 5.0.4 -  RELEASE  -
|  1> ! UKS TightSCF wB97x-D3 def2-TZVPD xyzfile opt freq
|  2>
|  3> # CF3 radical 119.5 degrees fixed
|  4>
|  5> %maxcore 1000
|  6> %pal
|  7> nprocs 18
|  8> end
|  9>
| 10> %geom Constraints
| 11>         { A * 0 * C }
| 12>     end
| 13> end
| 14> * xyz 0 2
| 15> C 0.00 0.00 0.00
| 16> F 1.3116747897 0.0000000000 -0.0934571891
| 17> F -0.6558373948 1.1359436893 -0.0934571891
| 18> F -0.6558373948 -1.1359436893 -0.0934571891
| 19> **                         ****END OF INPUT****
 Total Charge           Charge          ....    0
 Multiplicity           Mult            ....    2
 Number of Electrons    NEL             ....   33
Dispersion correction           -0.000116666
FINAL SINGLE POINT ENERGY      -337.598135993056
Dispersion correction            ... done
Dispersion correction           -0.000113279
FINAL SINGLE POINT ENERGY      -337.598249115387
Dispersion correction            ... done
Dispersion correction           -0.000112548
FINAL SINGLE POINT ENERGY      -337.598252825996
Dispersion correction            ... done
                    ***********************HURRAY********************

CARTESIAN COORDINATES (ANGSTROEM)
---------------------------------
  C     -0.000034    0.000000   -0.000330
  F      1.305556    0.000000   -0.093349
  F     -0.652761    1.130558   -0.093346
  F     -0.652761   -1.130558   -0.093346

 Multiplicity           Mult            ....    2
 Number of Electrons    NEL             ....   33
 Basis Dimension        Dim             ....  157

ORBITAL ENERGIES
----------------
                 SPIN UP ORBITALS
  NO   OCC          E(Eh)            E(eV)
   0   1.0000     -24.856284      -676.3739
   1   1.0000     -24.856276      -676.3737
   2   1.0000     -24.856245      -676.3728
   3   1.0000     -10.504989      -285.8553
   4   1.0000      -1.457282       -39.6547
   5   1.0000      -1.387405       -37.7532
   6   1.0000      -1.387361       -37.7520
   7   1.0000      -0.831188       -22.6178
   8   1.0000      -0.731784       -19.9129
   9   1.0000      -0.731779       -19.9127
  10   1.0000      -0.696444       -18.9512
  11   1.0000      -0.598606       -16.2889
  12   1.0000      -0.598602       -16.2888
  13   1.0000      -0.590129       -16.0582
  14   1.0000      -0.590113       -16.0578
  15   1.0000      -0.554119       -15.0783
  16   1.0000      -0.285440        -7.7672
  17   0.0000       0.051641         1.4052
  18   0.0000       0.100225         2.7273
  19   0.0000       0.100227         2.7273
  20   0.0000       0.121400         3.3035
  21   0.0000       0.142735         3.8840

                 SPIN DOWN ORBITALS
  NO   OCC          E(Eh)            E(eV)
   0   1.0000     -24.853586      -676.3005
   1   1.0000     -24.853576      -676.3002
   2   1.0000     -24.853545      -676.2993
   3   1.0000     -10.491626      -285.4917
   4   1.0000      -1.446121       -39.3510
   5   1.0000      -1.380446       -37.5639
   6   1.0000      -1.380403       -37.5627
   7   1.0000      -0.808947       -22.0126
   8   1.0000      -0.724492       -19.7144
   9   1.0000      -0.724479       -19.7141
  10   1.0000      -0.658030       -17.9059
  11   1.0000      -0.593508       -16.1502
  12   1.0000      -0.593491       -16.1497
  13   1.0000      -0.570805       -15.5324
  14   1.0000      -0.570780       -15.5317
  15   1.0000      -0.551339       -15.0027
  16   0.0000       0.053650         1.4599
  17   0.0000       0.074716         2.0331
  18   0.0000       0.102868         2.7992
  19   0.0000       0.102869         2.7992
  20   0.0000       0.131292         3.5726

MULLIKEN ATOMIC CHARGES AND SPIN POPULATIONS
--------------------------------------------
   0 C :    0.516883    0.896070
   1 F :   -0.172209    0.034614
   2 F :   -0.172336    0.034657
   3 F :   -0.172338    0.034658
Sum of atomic charges         :   -0.0000000

LOEWDIN ATOMIC CHARGES AND SPIN POPULATIONS
-------------------------------------------
   0 C :   -0.462701    0.618549
   1 F :    0.154149    0.127104
   2 F :    0.154276    0.127173
   3 F :    0.154275    0.127173

  Mayer bond orders larger than 0.100000
B(  0-C ,  1-F ) :   1.0444 B(  0-C ,  2-F ) :   1.0444 B(  0-C ,  3-F ) :   1.0444

Dispersion correction           -0.000112563
FINAL SINGLE POINT ENERGY      -337.598252815315

DIPOLE MOMENT
-------------
                                X             Y             Z
Electronic contribution:     -0.00021       0.00000      -0.14746
Nuclear contribution   :     -0.00002       0.00000       0.04500
                        -----------------------------------------
Total Dipole Moment    :     -0.00023       0.00000      -0.10246
                        -----------------------------------------
Magnitude (a.u.)       :      0.10246
Magnitude (Debye)      :      0.26043

Dispersion correction in the Hessian             ... done   (      0.1 sec)

VIBRATIONAL FREQUENCIES
-----------------------

Scaling factor for frequencies =  1.000000000  (already applied!)

   0:         0.00 cm**-1
   1:         0.00 cm**-1
   2:         0.00 cm**-1
   3:         0.00 cm**-1
   4:         0.00 cm**-1
   5:         0.00 cm**-1
   6:      -802.31 cm**-1 ***imaginary mode***
   7:       469.85 cm**-1
   8:       469.95 cm**-1
   9:       908.07 cm**-1
  10:      1422.52 cm**-1
  11:      1422.91 cm**-1

IR SPECTRUM
-----------

 Mode   freq       eps      Int      T**2         TX        TY        TZ
       cm**-1   L/(mol*cm) km/mol    a.u.
----------------------------------------------------------------------------
  7:    469.85   0.001039    5.25  0.000690  ( 0.026269  0.000011 -0.000005)
  8:    469.95   0.001033    5.22  0.000686  (-0.000011  0.026194  0.000000)
  9:    908.07   0.000010    0.05  0.000004  ( 0.000072 -0.000000 -0.001888)
 10:   1422.52   0.065163  329.31  0.014295  ( 0.119562  0.000043  0.000010)
 11:   1422.91   0.065250  329.74  0.014310  ( 0.000043 -0.119625  0.000000)

--------------------------
THERMOCHEMISTRY AT 298.15K
--------------------------

Temperature         ... 298.15 K
Pressure            ... 1.00 atm
Total Mass          ... 69.00 AMU

Throughout the following assumptions are being made:
  (1) The electronic state is orbitally nondegenerate
      but the spin degeneracy is treated
  (2) There are no thermally accessible electronically excited states
  (3) Hindered rotations indicated by low frequency modes are not
      treated as such but are treated as vibrations and this may
      cause some error
  (4) All equations used are the standard statistical mechanics
      equations for an ideal gas
  (5) All vibrations are strictly harmonic

freq.     469.85  E(vib)   ...       0.16
freq.     469.95  E(vib)   ...       0.16
freq.     908.07  E(vib)   ...       0.03
freq.    1422.52  E(vib)   ...       0.00
freq.    1422.91  E(vib)   ...       0.00

------------
INNER ENERGY
------------

The inner energy is: U= E(el) + E(ZPE) + E(vib) + E(rot) + E(trans)
    E(el)   - is the total energy from the electronic structure calculation
              = E(kin-el) + E(nuc-el) + E(el-el) + E(nuc-nuc)
    E(ZPE)  - the the zero temperature vibrational energy from the frequency calculation
    E(vib)  - the the finite temperature correction to E(ZPE) due to population
              of excited vibrational states
    E(rot)  - is the rotational thermal energy
    E(trans)- is the translational thermal energy

Summary of contributions to the inner energy U:
Electronic energy                ...   -337.59825282 Eh
Zero point energy                ...      0.01069214 Eh       6.71 kcal/mol
Thermal vibrational correction   ...      0.00056064 Eh       0.35 kcal/mol
Thermal rotational correction    ...      0.00141627 Eh       0.89 kcal/mol
Thermal translational correction ...      0.00141627 Eh       0.89 kcal/mol
-----------------------------------------------------------------------
Total thermal energy                   -337.58416750 Eh

Summary of corrections to the electronic energy:
(perhaps to be used in another calculation)
Total thermal correction                  0.00339318 Eh       2.13 kcal/mol
Non-thermal (ZPE) correction              0.01069214 Eh       6.71 kcal/mol
-----------------------------------------------------------------------
Total correction                          0.01408532 Eh       8.84 kcal/mol

--------
ENTHALPY
--------

The enthalpy is H = U + kB*T
                kB is Boltzmann's constant
Total free energy                 ...   -337.58416750 Eh
Thermal Enthalpy correction       ...      0.00094421 Eh       0.59 kcal/mol
-----------------------------------------------------------------------
Total Enthalpy                    ...   -337.58322329 Eh

Note: Rotational entropy computed according to Herzberg
Infrared and Raman Spectra, Chapter V,1, Van Nostrand Reinhold, 1945
Point Group:  Cs, Symmetry Number:   1
Rotational constants in cm-1:     0.346503     0.346455     0.173546

Vibrational entropy computed according to the QRRHO of S. Grimme
Chem.Eur.J. 2012 18 9955

-------
ENTROPY
-------

The entropy contributions are T*S = T*(S(el)+S(vib)+S(rot)+S(trans))
     S(el)   - electronic entropy
     S(vib)  - vibrational entropy
     S(rot)  - rotational entropy
     S(trans)- translational entropy
The entropies will be listed as multiplied by the temperature to get
units of energy

Electronic entropy                ...      0.00065446 Eh      0.41 kcal/mol
Vibrational entropy               ...      0.00078210 Eh      0.49 kcal/mol
Rotational entropy                ...      0.01133836 Eh      7.11 kcal/mol
Translational entropy             ...      0.01834582 Eh     11.51 kcal/mol
-----------------------------------------------------------------------
Final entropy term                ...      0.03112073 Eh     19.53 kcal/mol

In case the symmetry of your molecule has not been determined correctly
or in case you have a reason to use a different symmetry number we print
out the resulting rotational entropy values for sn=1,12 :
 --------------------------------------------------------
|  sn= 1 | S(rot)=       0.01133836 Eh      7.11 kcal/mol|
|  sn= 2 | S(rot)=       0.01068390 Eh      6.70 kcal/mol|
|  sn= 3 | S(rot)=       0.01030107 Eh      6.46 kcal/mol|
|  sn= 4 | S(rot)=       0.01002945 Eh      6.29 kcal/mol|
|  sn= 5 | S(rot)=       0.00981876 Eh      6.16 kcal/mol|
|  sn= 6 | S(rot)=       0.00964661 Eh      6.05 kcal/mol|
|  sn= 7 | S(rot)=       0.00950107 Eh      5.96 kcal/mol|
|  sn= 8 | S(rot)=       0.00937499 Eh      5.88 kcal/mol|
|  sn= 9 | S(rot)=       0.00926378 Eh      5.81 kcal/mol|
|  sn=10 | S(rot)=       0.00916430 Eh      5.75 kcal/mol|
|  sn=11 | S(rot)=       0.00907431 Eh      5.69 kcal/mol|
|  sn=12 | S(rot)=       0.00899216 Eh      5.64 kcal/mol|
 --------------------------------------------------------

-------------------
GIBBS FREE ENERGY
-------------------

The Gibbs free energy is G = H - T*S

Total enthalpy                    ...   -337.58322329 Eh
Total entropy correction          ...     -0.03112073 Eh    -19.53 kcal/mol
-----------------------------------------------------------------------
Final Gibbs free energy         ...   -337.61434402 Eh

For completeness - the Gibbs free energy minus the electronic energy
G-E(el)                           ...     -0.01609121 Eh    -10.10 kcal/mol

                             ****ORCA TERMINATED NORMALLY****
TOTAL RUN TIME: 0 days 0 hours 1 minutes 38 seconds 791 msec
