                         Program Version 5.0.4 -  RELEASE  -
|  1> ! UKS TightSCF wB97x-D3 def2-TZVPD xyzfile opt freq
|  2>
|  3> # CF3 radical 117.0 degrees fixed
|  4>
|  5> %maxcore 1000
|  6> %pal
|  7> nprocs 18
|  8> end
|  9>
| 10> %geom Constraints
| 11>         { A * 0 * C }
| 12>     end
| 13> end
| 14> * xyz 0 2
| 15> C 0.00 0.00 0.00
| 16> F 1.2946754347 0.0000000000 -0.2303052729
| 17> F -0.6473377174 1.1212218161 -0.2303052729
| 18> F -0.6473377174 -1.1212218161 -0.2303052729
| 19> **                         ****END OF INPUT****
 Total Charge           Charge          ....    0
 Multiplicity           Mult            ....    2
 Number of Electrons    NEL             ....   33
Dispersion correction           -0.000105737
FINAL SINGLE POINT ENERGY      -337.619459277314
Dispersion correction            ... done
Dispersion correction           -0.000102739
FINAL SINGLE POINT ENERGY      -337.619563289801
Dispersion correction            ... done
Dispersion correction           -0.000101980
FINAL SINGLE POINT ENERGY      -337.619566737884
Dispersion correction            ... done
                    ***********************HURRAY********************

CARTESIAN COORDINATES (ANGSTROEM)
---------------------------------
  C     -0.000247    0.000000   -0.000810
  F      1.289004    0.000000   -0.230065
  F     -0.644379    1.115695   -0.230021
  F     -0.644379   -1.115695   -0.230021

 Multiplicity           Mult            ....    2
 Number of Electrons    NEL             ....   33
 Basis Dimension        Dim             ....  157

ORBITAL ENERGIES
----------------
                 SPIN UP ORBITALS
  NO   OCC          E(Eh)            E(eV)
   0   1.0000     -24.857799      -676.4151
   1   1.0000     -24.857791      -676.4149
   2   1.0000     -24.857535      -676.4079
   3   1.0000     -10.524366      -286.3826
   4   1.0000      -1.465720       -39.8843
   5   1.0000      -1.390300       -37.8320
   6   1.0000      -1.389956       -37.8226
   7   1.0000      -0.836722       -22.7684
   8   1.0000      -0.736615       -20.0443
   9   1.0000      -0.736518       -20.0417
  10   1.0000      -0.700178       -19.0528
  11   1.0000      -0.605481       -16.4760
  12   1.0000      -0.605470       -16.4757
  13   1.0000      -0.585872       -15.9424
  14   1.0000      -0.585762       -15.9394
  15   1.0000      -0.554759       -15.0958
  16   1.0000      -0.319915        -8.7053
  17   0.0000       0.062689         1.7059
  18   0.0000       0.100839         2.7440
  19   0.0000       0.100852         2.7443
  20   0.0000       0.117751         3.2042
  21   0.0000       0.154583         4.2064

                 SPIN DOWN ORBITALS
  NO   OCC          E(Eh)            E(eV)
   0   1.0000     -24.854844      -676.3347
   1   1.0000     -24.854831      -676.3343
   2   1.0000     -24.854580      -676.3275
   3   1.0000     -10.511476      -286.0318
   4   1.0000      -1.454975       -39.5919
   5   1.0000      -1.382273       -37.6136
   6   1.0000      -1.381939       -37.6045
   7   1.0000      -0.817501       -22.2453
   8   1.0000      -0.727668       -19.8009
   9   1.0000      -0.727583       -19.7985
  10   1.0000      -0.662925       -18.0391
  11   1.0000      -0.596638       -16.2354
  12   1.0000      -0.596560       -16.2332
  13   1.0000      -0.572748       -15.5853
  14   1.0000      -0.572585       -15.5808
  15   1.0000      -0.551639       -15.0109
  16   0.0000       0.028518         0.7760
  17   0.0000       0.078841         2.1454
  18   0.0000       0.105026         2.8579
  19   0.0000       0.105040         2.8583
  20   0.0000       0.133453         3.6314

MULLIKEN ATOMIC CHARGES AND SPIN POPULATIONS
--------------------------------------------
   0 C :    0.509885    0.854797
   1 F :   -0.170070    0.048342
   2 F :   -0.169909    0.048431
   3 F :   -0.169907    0.048430
Sum of atomic charges         :   -0.0000000

LOEWDIN ATOMIC CHARGES AND SPIN POPULATIONS
-------------------------------------------
   0 C :   -0.455994    0.610807
   1 F :    0.151340    0.129603
   2 F :    0.152327    0.129795
   3 F :    0.152327    0.129795

  Mayer bond orders larger than 0.100000
B(  0-C ,  1-F ) :   1.0496 B(  0-C ,  2-F ) :   1.0501 B(  0-C ,  3-F ) :   1.0501

Dispersion correction           -0.000101996
FINAL SINGLE POINT ENERGY      -337.619566693575

DIPOLE MOMENT
-------------
                                X             Y             Z
Electronic contribution:     -0.00164       0.00000      -0.18239
Nuclear contribution   :     -0.00016       0.00000       0.11090
                        -----------------------------------------
Total Dipole Moment    :     -0.00180       0.00000      -0.07149
                        -----------------------------------------
Magnitude (a.u.)       :      0.07151
Magnitude (Debye)      :      0.18176

Dispersion correction in the Hessian             ... done   (      0.1 sec)

VIBRATIONAL FREQUENCIES
-----------------------

Scaling factor for frequencies =  1.000000000  (already applied!)

   0:         0.00 cm**-1
   1:         0.00 cm**-1
   2:         0.00 cm**-1
   3:         0.00 cm**-1
   4:         0.00 cm**-1
   5:         0.00 cm**-1
   6:       477.10 cm**-1
   7:       477.23 cm**-1
   8:       568.76 cm**-1
   9:       985.40 cm**-1
  10:      1354.78 cm**-1
  11:      1358.08 cm**-1

IR SPECTRUM
-----------

 Mode   freq       eps      Int      T**2         TX        TY        TZ
       cm**-1   L/(mol*cm) km/mol    a.u.
----------------------------------------------------------------------------
  6:    477.10   0.000438    2.21  0.000287  (-0.000008  0.016931  0.000000)
  7:    477.23   0.000438    2.22  0.000287  (-0.016929 -0.000008  0.000199)
  8:    568.76   0.001997   10.09  0.001095  ( 0.000080 -0.000000  0.033097)
  9:    985.40   0.002181   11.02  0.000691  ( 0.000600 -0.000000 -0.026276)
 10:   1354.78   0.072714  367.47  0.016749  ( 0.129418  0.000016  0.000158)
 11:   1358.08   0.072783  367.82  0.016724  ( 0.000016 -0.129323  0.000000)

--------------------------
THERMOCHEMISTRY AT 298.15K
--------------------------

Temperature         ... 298.15 K
Pressure            ... 1.00 atm
Total Mass          ... 69.00 AMU

Throughout the following assumptions are being made:
  (1) The electronic state is orbitally nondegenerate
      but the spin degeneracy is treated
  (2) There are no thermally accessible electronically excited states
  (3) Hindered rotations indicated by low frequency modes are not
      treated as such but are treated as vibrations and this may
      cause some error
  (4) All equations used are the standard statistical mechanics
      equations for an ideal gas
  (5) All vibrations are strictly harmonic

freq.     477.10  E(vib)   ...       0.15
freq.     477.23  E(vib)   ...       0.15
freq.     568.76  E(vib)   ...       0.11
freq.     985.40  E(vib)   ...       0.02
freq.    1354.78  E(vib)   ...       0.01
freq.    1358.08  E(vib)   ...       0.01

------------
INNER ENERGY
------------

The inner energy is: U= E(el) + E(ZPE) + E(vib) + E(rot) + E(trans)
    E(el)   - is the total energy from the electronic structure calculation
              = E(kin-el) + E(nuc-el) + E(el-el) + E(nuc-nuc)
    E(ZPE)  - the the zero temperature vibrational energy from the frequency calculation
    E(vib)  - the the finite temperature correction to E(ZPE) due to population
              of excited vibrational states
    E(rot)  - is the rotational thermal energy
    E(trans)- is the translational thermal energy

Summary of contributions to the inner energy U:
Electronic energy                ...   -337.61956669 Eh
Zero point energy                ...      0.01189511 Eh       7.46 kcal/mol
Thermal vibrational correction   ...      0.00071791 Eh       0.45 kcal/mol
Thermal rotational correction    ...      0.00141627 Eh       0.89 kcal/mol
Thermal translational correction ...      0.00141627 Eh       0.89 kcal/mol
-----------------------------------------------------------------------
Total thermal energy                   -337.60412112 Eh

Summary of corrections to the electronic energy:
(perhaps to be used in another calculation)
Total thermal correction                  0.00355045 Eh       2.23 kcal/mol
Non-thermal (ZPE) correction              0.01189511 Eh       7.46 kcal/mol
-----------------------------------------------------------------------
Total correction                          0.01544557 Eh       9.69 kcal/mol

--------
ENTHALPY
--------

The enthalpy is H = U + kB*T
                kB is Boltzmann's constant
Total free energy                 ...   -337.60412112 Eh
Thermal Enthalpy correction       ...      0.00094421 Eh       0.59 kcal/mol
-----------------------------------------------------------------------
Total Enthalpy                    ...   -337.60317692 Eh

Note: Rotational entropy computed according to Herzberg
Infrared and Raman Spectra, Chapter V,1, Van Nostrand Reinhold, 1945
Point Group:  Cs, Symmetry Number:   1
Rotational constants in cm-1:     0.352540     0.352200     0.178126

Vibrational entropy computed according to the QRRHO of S. Grimme
Chem.Eur.J. 2012 18 9955

-------
ENTROPY
-------

The entropy contributions are T*S = T*(S(el)+S(vib)+S(rot)+S(trans))
     S(el)   - electronic entropy
     S(vib)  - vibrational entropy
     S(rot)  - rotational entropy
     S(trans)- translational entropy
The entropies will be listed as multiplied by the temperature to get
units of energy

Electronic entropy                ...      0.00065446 Eh      0.41 kcal/mol
Vibrational entropy               ...      0.00099183 Eh      0.62 kcal/mol
Rotational entropy                ...      0.01131014 Eh      7.10 kcal/mol
Translational entropy             ...      0.01834582 Eh     11.51 kcal/mol
-----------------------------------------------------------------------
Final entropy term                ...      0.03130225 Eh     19.64 kcal/mol

In case the symmetry of your molecule has not been determined correctly
or in case you have a reason to use a different symmetry number we print
out the resulting rotational entropy values for sn=1,12 :
 --------------------------------------------------------
|  sn= 1 | S(rot)=       0.01131014 Eh      7.10 kcal/mol|
|  sn= 2 | S(rot)=       0.01065569 Eh      6.69 kcal/mol|
|  sn= 3 | S(rot)=       0.01027285 Eh      6.45 kcal/mol|
|  sn= 4 | S(rot)=       0.01000123 Eh      6.28 kcal/mol|
|  sn= 5 | S(rot)=       0.00979054 Eh      6.14 kcal/mol|
|  sn= 6 | S(rot)=       0.00961840 Eh      6.04 kcal/mol|
|  sn= 7 | S(rot)=       0.00947285 Eh      5.94 kcal/mol|
|  sn= 8 | S(rot)=       0.00934677 Eh      5.87 kcal/mol|
|  sn= 9 | S(rot)=       0.00923557 Eh      5.80 kcal/mol|
|  sn=10 | S(rot)=       0.00913609 Eh      5.73 kcal/mol|
|  sn=11 | S(rot)=       0.00904610 Eh      5.68 kcal/mol|
|  sn=12 | S(rot)=       0.00896394 Eh      5.62 kcal/mol|
 --------------------------------------------------------

-------------------
GIBBS FREE ENERGY
-------------------

The Gibbs free energy is G = H - T*S

Total enthalpy                    ...   -337.60317692 Eh
Total entropy correction          ...     -0.03130225 Eh    -19.64 kcal/mol
-----------------------------------------------------------------------
Final Gibbs free energy         ...   -337.63447917 Eh

For completeness - the Gibbs free energy minus the electronic energy
G-E(el)                           ...     -0.01491247 Eh     -9.36 kcal/mol

                             ****ORCA TERMINATED NORMALLY****
TOTAL RUN TIME: 0 days 0 hours 1 minutes 39 seconds 71 msec
