                         Program Version 5.0.4 -  RELEASE  -
|  1> ! UKS TightSCF wB97x-D3 def2-TZVPD xyzfile opt freq
|  2>
|  3> # CF3 radical 114.5 degrees fixed
|  4>
|  5> %maxcore 1000
|  6> %pal
|  7> nprocs 18
|  8> end
|  9>
| 10> %geom Constraints
| 11>         { A * 0 * C }
| 12>     end
| 13> end
| 14> * xyz 0 2
| 15> C 0.00 0.00 0.00
| 16> F 1.2770598844 0.0000000000 -0.3135969573
| 17> F -0.6385299422 1.1059663020 -0.3135969573
| 18> F -0.6385299422 -1.1059663020 -0.3135969573
| 19> **                         ****END OF INPUT****
 Total Charge           Charge          ....    0
 Multiplicity           Mult            ....    2
 Number of Electrons    NEL             ....   33
Dispersion correction           -0.000095270
FINAL SINGLE POINT ENERGY      -337.629164050902
Dispersion correction            ... done
Dispersion correction           -0.000093440
FINAL SINGLE POINT ENERGY      -337.629213354805
Dispersion correction            ... done
Dispersion correction           -0.000092993
FINAL SINGLE POINT ENERGY      -337.629215636671
Dispersion correction            ... done
                    ***********************HURRAY********************

CARTESIAN COORDINATES (ANGSTROEM)
---------------------------------
  C      0.000076    0.000000   -0.000733
  F      1.272964    0.000000   -0.313340
  F     -0.636520    1.102603   -0.313359
  F     -0.636520   -1.102603   -0.313359

 Multiplicity           Mult            ....    2
 Number of Electrons    NEL             ....   33
 Basis Dimension        Dim             ....  157

ORBITAL ENERGIES
----------------
                 SPIN UP ORBITALS
  NO   OCC          E(Eh)            E(eV)
   0   1.0000     -24.856311      -676.3746
   1   1.0000     -24.856213      -676.3719
   2   1.0000     -24.856206      -676.3717
   3   1.0000     -10.532881      -286.6143
   4   1.0000      -1.468897       -39.9707
   5   1.0000      -1.388198       -37.7748
   6   1.0000      -1.388091       -37.7719
   7   1.0000      -0.838312       -22.8116
   8   1.0000      -0.736282       -20.0353
   9   1.0000      -0.736248       -20.0343
  10   1.0000      -0.701192       -19.0804
  11   1.0000      -0.607146       -16.5213
  12   1.0000      -0.607144       -16.5212
  13   1.0000      -0.580728       -15.8024
  14   1.0000      -0.580686       -15.8013
  15   1.0000      -0.552166       -15.0252
  16   1.0000      -0.346127        -9.4186
  17   0.0000       0.067129         1.8267
  18   0.0000       0.102325         2.7844
  19   0.0000       0.102330         2.7845
  20   0.0000       0.116019         3.1570
  21   0.0000       0.156141         4.2488

                 SPIN DOWN ORBITALS
  NO   OCC          E(Eh)            E(eV)
   0   1.0000     -24.853304      -676.2928
   1   1.0000     -24.853209      -676.2902
   2   1.0000     -24.853196      -676.2899
   3   1.0000     -10.520068      -286.2656
   4   1.0000      -1.458509       -39.6881
   5   1.0000      -1.379824       -37.5469
   6   1.0000      -1.379717       -37.5440
   7   1.0000      -0.819853       -22.3093
   8   1.0000      -0.726609       -19.7720
   9   1.0000      -0.726578       -19.7712
  10   1.0000      -0.663745       -18.0614
  11   1.0000      -0.597040       -16.2463
  12   1.0000      -0.597024       -16.2458
  13   1.0000      -0.569823       -15.5057
  14   1.0000      -0.569766       -15.5041
  15   1.0000      -0.548947       -14.9376
  16   0.0000       0.004910         0.1336
  17   0.0000       0.080845         2.1999
  18   0.0000       0.106155         2.8886
  19   0.0000       0.106161         2.8888
  20   0.0000       0.132557         3.6071

MULLIKEN ATOMIC CHARGES AND SPIN POPULATIONS
--------------------------------------------
   0 C :    0.520354    0.832598
   1 F :   -0.173366    0.055811
   2 F :   -0.173492    0.055795
   3 F :   -0.173496    0.055796
Sum of atomic charges         :   -0.0000000

LOEWDIN ATOMIC CHARGES AND SPIN POPULATIONS
-------------------------------------------
   0 C :   -0.438694    0.611435
   1 F :    0.146445    0.129543
   2 F :    0.146124    0.129511
   3 F :    0.146124    0.129511

  Mayer bond orders larger than 0.100000
B(  0-C ,  1-F ) :   1.0509 B(  0-C ,  2-F ) :   1.0507 B(  0-C ,  3-F ) :   1.0507

Dispersion correction           -0.000092999
FINAL SINGLE POINT ENERGY      -337.629215616806

DIPOLE MOMENT
-------------
                                X             Y             Z
Electronic contribution:      0.00053       0.00000      -0.14248
Nuclear contribution   :      0.00005       0.00000       0.15125
                        -----------------------------------------
Total Dipole Moment    :      0.00058       0.00000       0.00878
                        -----------------------------------------
Magnitude (a.u.)       :      0.00879
Magnitude (Debye)      :      0.02235

Dispersion correction in the Hessian             ... done   (      0.1 sec)

VIBRATIONAL FREQUENCIES
-----------------------

Scaling factor for frequencies =  1.000000000  (already applied!)

   0:         0.00 cm**-1
   1:         0.00 cm**-1
   2:         0.00 cm**-1
   3:         0.00 cm**-1
   4:         0.00 cm**-1
   5:         0.00 cm**-1
   6:       492.27 cm**-1
   7:       492.35 cm**-1
   8:       671.48 cm**-1
   9:      1053.68 cm**-1
  10:      1315.67 cm**-1
  11:      1316.36 cm**-1

IR SPECTRUM
-----------

 Mode   freq       eps      Int      T**2         TX        TY        TZ
       cm**-1   L/(mol*cm) km/mol    a.u.
----------------------------------------------------------------------------
  6:    492.27   0.000330    1.67  0.000209  (-0.014474  0.000007 -0.000055)
  7:    492.35   0.000329    1.66  0.000208  (-0.000007 -0.014436 -0.000000)
  8:    671.48   0.002402   12.14  0.001116  (-0.000015 -0.000000  0.033412)
  9:   1053.68   0.005340   26.99  0.001581  ( 0.000357  0.000000  0.039766)
 10:   1315.67   0.073549  371.69  0.017445  (-0.000059 -0.132079  0.000000)
 11:   1316.36   0.073551  371.70  0.017436  (-0.132047  0.000059  0.000031)

--------------------------
THERMOCHEMISTRY AT 298.15K
--------------------------

Temperature         ... 298.15 K
Pressure            ... 1.00 atm
Total Mass          ... 69.00 AMU

Throughout the following assumptions are being made:
  (1) The electronic state is orbitally nondegenerate
      but the spin degeneracy is treated
  (2) There are no thermally accessible electronically excited states
  (3) Hindered rotations indicated by low frequency modes are not
      treated as such but are treated as vibrations and this may
      cause some error
  (4) All equations used are the standard statistical mechanics
      equations for an ideal gas
  (5) All vibrations are strictly harmonic

freq.     492.27  E(vib)   ...       0.14
freq.     492.35  E(vib)   ...       0.14
freq.     671.48  E(vib)   ...       0.08
freq.    1053.68  E(vib)   ...       0.02
freq.    1315.67  E(vib)   ...       0.01
freq.    1316.36  E(vib)   ...       0.01

------------
INNER ENERGY
------------

The inner energy is: U= E(el) + E(ZPE) + E(vib) + E(rot) + E(trans)
    E(el)   - is the total energy from the electronic structure calculation
              = E(kin-el) + E(nuc-el) + E(el-el) + E(nuc-nuc)
    E(ZPE)  - the the zero temperature vibrational energy from the frequency calculation
    E(vib)  - the the finite temperature correction to E(ZPE) due to population
              of excited vibrational states
    E(rot)  - is the rotational thermal energy
    E(trans)- is the translational thermal energy

Summary of contributions to the inner energy U:
Electronic energy                ...   -337.62921562 Eh
Zero point energy                ...      0.01216951 Eh       7.64 kcal/mol
Thermal vibrational correction   ...      0.00063530 Eh       0.40 kcal/mol
Thermal rotational correction    ...      0.00141627 Eh       0.89 kcal/mol
Thermal translational correction ...      0.00141627 Eh       0.89 kcal/mol
-----------------------------------------------------------------------
Total thermal energy                   -337.61357826 Eh

Summary of corrections to the electronic energy:
(perhaps to be used in another calculation)
Total thermal correction                  0.00346785 Eh       2.18 kcal/mol
Non-thermal (ZPE) correction              0.01216951 Eh       7.64 kcal/mol
-----------------------------------------------------------------------
Total correction                          0.01563736 Eh       9.81 kcal/mol

--------
ENTHALPY
--------

The enthalpy is H = U + kB*T
                kB is Boltzmann's constant
Total free energy                 ...   -337.61357826 Eh
Thermal Enthalpy correction       ...      0.00094421 Eh       0.59 kcal/mol
-----------------------------------------------------------------------
Total Enthalpy                    ...   -337.61263405 Eh

Note: Rotational entropy computed according to Herzberg
Infrared and Raman Spectra, Chapter V,1, Van Nostrand Reinhold, 1945
Point Group:  Cs, Symmetry Number:   1
Rotational constants in cm-1:     0.357540     0.357437     0.182497

Vibrational entropy computed according to the QRRHO of S. Grimme
Chem.Eur.J. 2012 18 9955

-------
ENTROPY
-------

The entropy contributions are T*S = T*(S(el)+S(vib)+S(rot)+S(trans))
     S(el)   - electronic entropy
     S(vib)  - vibrational entropy
     S(rot)  - rotational entropy
     S(trans)- translational entropy
The entropies will be listed as multiplied by the temperature to get
units of energy

Electronic entropy                ...      0.00065446 Eh      0.41 kcal/mol
Vibrational entropy               ...      0.00086752 Eh      0.54 kcal/mol
Rotational entropy                ...      0.01128508 Eh      7.08 kcal/mol
Translational entropy             ...      0.01834582 Eh     11.51 kcal/mol
-----------------------------------------------------------------------
Final entropy term                ...      0.03115288 Eh     19.55 kcal/mol

In case the symmetry of your molecule has not been determined correctly
or in case you have a reason to use a different symmetry number we print
out the resulting rotational entropy values for sn=1,12 :
 --------------------------------------------------------
|  sn= 1 | S(rot)=       0.01128508 Eh      7.08 kcal/mol|
|  sn= 2 | S(rot)=       0.01063062 Eh      6.67 kcal/mol|
|  sn= 3 | S(rot)=       0.01024779 Eh      6.43 kcal/mol|
|  sn= 4 | S(rot)=       0.00997617 Eh      6.26 kcal/mol|
|  sn= 5 | S(rot)=       0.00976548 Eh      6.13 kcal/mol|
|  sn= 6 | S(rot)=       0.00959334 Eh      6.02 kcal/mol|
|  sn= 7 | S(rot)=       0.00944779 Eh      5.93 kcal/mol|
|  sn= 8 | S(rot)=       0.00932171 Eh      5.85 kcal/mol|
|  sn= 9 | S(rot)=       0.00921050 Eh      5.78 kcal/mol|
|  sn=10 | S(rot)=       0.00911102 Eh      5.72 kcal/mol|
|  sn=11 | S(rot)=       0.00902103 Eh      5.66 kcal/mol|
|  sn=12 | S(rot)=       0.00893888 Eh      5.61 kcal/mol|
 --------------------------------------------------------

-------------------
GIBBS FREE ENERGY
-------------------

The Gibbs free energy is G = H - T*S

Total enthalpy                    ...   -337.61263405 Eh
Total entropy correction          ...     -0.03115288 Eh    -19.55 kcal/mol
-----------------------------------------------------------------------
Final Gibbs free energy         ...   -337.64378692 Eh

For completeness - the Gibbs free energy minus the electronic energy
G-E(el)                           ...     -0.01457131 Eh     -9.14 kcal/mol

                             ****ORCA TERMINATED NORMALLY****
TOTAL RUN TIME: 0 days 0 hours 1 minutes 35 seconds 272 msec
