                         Program Version 5.0.4 -  RELEASE  -
|  1> ! UKS TightSCF wB97x-D3 def2-TZVPD xyzfile opt freq
|  2>
|  3> # CF3 radical 114.0 degrees fixed
|  4>
|  5> %maxcore 1000
|  6> %pal
|  7> nprocs 18
|  8> end
|  9>
| 10> %geom Constraints
| 11>         { A * 0 * C }
| 12>     end
| 13> end
| 14> * xyz 0 2
| 15> C 0.00 0.00 0.00
| 16> F 1.2734635636 0.0000000000 -0.3278956423
| 17> F -0.6367317818 1.1028517968 -0.3278956423
| 18> F -0.6367317818 -1.1028517968 -0.3278956423
| 19> **                         ****END OF INPUT****
 Total Charge           Charge          ....    0
 Multiplicity           Mult            ....    2
 Number of Electrons    NEL             ....   33
Dispersion correction           -0.000093238
FINAL SINGLE POINT ENERGY      -337.630271489846
Dispersion correction            ... done
Dispersion correction           -0.000091673
FINAL SINGLE POINT ENERGY      -337.630308894330
Dispersion correction            ... done
Dispersion correction           -0.000091293
FINAL SINGLE POINT ENERGY      -337.630310557731
Dispersion correction            ... done
                    ***********************HURRAY********************

CARTESIAN COORDINATES (ANGSTROEM)
---------------------------------
  C      0.000135   -0.000000   -0.000667
  F      1.269802   -0.000000   -0.327650
  F     -0.634969    1.100004   -0.327685
  F     -0.634968   -1.100004   -0.327685

 Multiplicity           Mult            ....    2
 Number of Electrons    NEL             ....   33
 Basis Dimension        Dim             ....  157

ORBITAL ENERGIES
----------------
                 SPIN UP ORBITALS
  NO   OCC          E(Eh)            E(eV)
   0   1.0000     -24.855958      -676.3650
   1   1.0000     -24.855792      -676.3605
   2   1.0000     -24.855784      -676.3603
   3   1.0000     -10.534181      -286.6496
   4   1.0000      -1.469320       -39.9822
   5   1.0000      -1.387637       -37.7595
   6   1.0000      -1.387452       -37.7545
   7   1.0000      -0.838481       -22.8162
   8   1.0000      -0.736023       -20.0282
   9   1.0000      -0.735968       -20.0267
  10   1.0000      -0.701290       -19.0831
  11   1.0000      -0.607282       -16.5250
  12   1.0000      -0.607277       -16.5249
  13   1.0000      -0.579660       -15.7734
  14   1.0000      -0.579592       -15.7715
  15   1.0000      -0.551510       -15.0073
  16   1.0000      -0.350747        -9.5443
  17   0.0000       0.067708         1.8424
  18   0.0000       0.102597         2.7918
  19   0.0000       0.102605         2.7920
  20   0.0000       0.115739         3.1494
  21   0.0000       0.156466         4.2577

                 SPIN DOWN ORBITALS
  NO   OCC          E(Eh)            E(eV)
   0   1.0000     -24.852948      -676.2831
   1   1.0000     -24.852785      -676.2787
   2   1.0000     -24.852773      -676.2783
   3   1.0000     -10.521370      -286.3010
   4   1.0000      -1.459001       -39.7014
   5   1.0000      -1.379222       -37.5305
   6   1.0000      -1.379037       -37.5255
   7   1.0000      -0.820096       -22.3159
   8   1.0000      -0.726244       -19.7621
   9   1.0000      -0.726192       -19.7607
  10   1.0000      -0.663760       -18.0618
  11   1.0000      -0.597025       -16.2459
  12   1.0000      -0.596997       -16.2451
  13   1.0000      -0.569057       -15.4848
  14   1.0000      -0.568966       -15.4823
  15   1.0000      -0.548280       -14.9195
  16   0.0000       0.000583         0.0159
  17   0.0000       0.081071         2.2060
  18   0.0000       0.106339         2.8936
  19   0.0000       0.106348         2.8939
  20   0.0000       0.132311         3.6004

MULLIKEN ATOMIC CHARGES AND SPIN POPULATIONS
--------------------------------------------
   0 C :    0.522504    0.829247
   1 F :   -0.174037    0.056931
   2 F :   -0.174233    0.056910
   3 F :   -0.174234    0.056911
Sum of atomic charges         :   -0.0000000

LOEWDIN ATOMIC CHARGES AND SPIN POPULATIONS
-------------------------------------------
   0 C :   -0.434705    0.611830
   1 F :    0.145267    0.129430
   2 F :    0.144719    0.129370
   3 F :    0.144719    0.129370

  Mayer bond orders larger than 0.100000
B(  0-C ,  1-F ) :   1.0510 B(  0-C ,  2-F ) :   1.0507 B(  0-C ,  3-F ) :   1.0507

Dispersion correction           -0.000091298
FINAL SINGLE POINT ENERGY      -337.630310526673

DIPOLE MOMENT
-------------
                                X             Y             Z
Electronic contribution:      0.00091      -0.00000      -0.13348
Nuclear contribution   :      0.00009      -0.00000       0.15821
                        -----------------------------------------
Total Dipole Moment    :      0.00100      -0.00000       0.02473
                        -----------------------------------------
Magnitude (a.u.)       :      0.02475
Magnitude (Debye)      :      0.06291

Dispersion correction in the Hessian             ... done   (      0.1 sec)

VIBRATIONAL FREQUENCIES
-----------------------

Scaling factor for frequencies =  1.000000000  (already applied!)

   0:         0.00 cm**-1
   1:         0.00 cm**-1
   2:         0.00 cm**-1
   3:         0.00 cm**-1
   4:         0.00 cm**-1
   5:         0.00 cm**-1
   6:       495.34 cm**-1
   7:       495.51 cm**-1
   8:       679.81 cm**-1
   9:      1063.10 cm**-1
  10:      1308.02 cm**-1
  11:      1309.43 cm**-1

IR SPECTRUM
-----------

 Mode   freq       eps      Int      T**2         TX        TY        TZ
       cm**-1   L/(mol*cm) km/mol    a.u.
----------------------------------------------------------------------------
  6:    495.34   0.000322    1.63  0.000203  (-0.014246 -0.000005 -0.000068)
  7:    495.51   0.000320    1.62  0.000201  (-0.000005  0.014192 -0.000000)
  8:    679.81   0.002404   12.15  0.001103  (-0.000045  0.000000  0.033218)
  9:   1063.10   0.005800   29.31  0.001703  (-0.000575  0.000000 -0.041259)
 10:   1308.02   0.073435  371.11  0.017520  ( 0.000034 -0.132363 -0.000000)
 11:   1309.43   0.073437  371.12  0.017502  (-0.132293 -0.000034  0.000090)

--------------------------
THERMOCHEMISTRY AT 298.15K
--------------------------

Temperature         ... 298.15 K
Pressure            ... 1.00 atm
Total Mass          ... 69.00 AMU

Throughout the following assumptions are being made:
  (1) The electronic state is orbitally nondegenerate
      but the spin degeneracy is treated
  (2) There are no thermally accessible electronically excited states
  (3) Hindered rotations indicated by low frequency modes are not
      treated as such but are treated as vibrations and this may
      cause some error
  (4) All equations used are the standard statistical mechanics
      equations for an ideal gas
  (5) All vibrations are strictly harmonic

freq.     495.34  E(vib)   ...       0.14
freq.     495.51  E(vib)   ...       0.14
freq.     679.81  E(vib)   ...       0.08
freq.    1063.10  E(vib)   ...       0.02
freq.    1308.02  E(vib)   ...       0.01
freq.    1309.43  E(vib)   ...       0.01

------------
INNER ENERGY
------------

The inner energy is: U= E(el) + E(ZPE) + E(vib) + E(rot) + E(trans)
    E(el)   - is the total energy from the electronic structure calculation
              = E(kin-el) + E(nuc-el) + E(el-el) + E(nuc-nuc)
    E(ZPE)  - the the zero temperature vibrational energy from the frequency calculation
    E(vib)  - the the finite temperature correction to E(ZPE) due to population
              of excited vibrational states
    E(rot)  - is the rotational thermal energy
    E(trans)- is the translational thermal energy

Summary of contributions to the inner energy U:
Electronic energy                ...   -337.63031053 Eh
Zero point energy                ...      0.01219095 Eh       7.65 kcal/mol
Thermal vibrational correction   ...      0.00062654 Eh       0.39 kcal/mol
Thermal rotational correction    ...      0.00141627 Eh       0.89 kcal/mol
Thermal translational correction ...      0.00141627 Eh       0.89 kcal/mol
-----------------------------------------------------------------------
Total thermal energy                   -337.61466050 Eh

Summary of corrections to the electronic energy:
(perhaps to be used in another calculation)
Total thermal correction                  0.00345908 Eh       2.17 kcal/mol
Non-thermal (ZPE) correction              0.01219095 Eh       7.65 kcal/mol
-----------------------------------------------------------------------
Total correction                          0.01565003 Eh       9.82 kcal/mol

--------
ENTHALPY
--------

The enthalpy is H = U + kB*T
                kB is Boltzmann's constant
Total free energy                 ...   -337.61466050 Eh
Thermal Enthalpy correction       ...      0.00094421 Eh       0.59 kcal/mol
-----------------------------------------------------------------------
Total Enthalpy                    ...   -337.61371629 Eh

Note: Rotational entropy computed according to Herzberg
Infrared and Raman Spectra, Chapter V,1, Van Nostrand Reinhold, 1945
Point Group:  Cs, Symmetry Number:   1
Rotational constants in cm-1:     0.358578     0.358396     0.183380

Vibrational entropy computed according to the QRRHO of S. Grimme
Chem.Eur.J. 2012 18 9955

-------
ENTROPY
-------

The entropy contributions are T*S = T*(S(el)+S(vib)+S(rot)+S(trans))
     S(el)   - electronic entropy
     S(vib)  - vibrational entropy
     S(rot)  - rotational entropy
     S(trans)- translational entropy
The entropies will be listed as multiplied by the temperature to get
units of energy

Electronic entropy                ...      0.00065446 Eh      0.41 kcal/mol
Vibrational entropy               ...      0.00085418 Eh      0.54 kcal/mol
Rotational entropy                ...      0.01128017 Eh      7.08 kcal/mol
Translational entropy             ...      0.01834582 Eh     11.51 kcal/mol
-----------------------------------------------------------------------
Final entropy term                ...      0.03113462 Eh     19.54 kcal/mol

In case the symmetry of your molecule has not been determined correctly
or in case you have a reason to use a different symmetry number we print
out the resulting rotational entropy values for sn=1,12 :
 --------------------------------------------------------
|  sn= 1 | S(rot)=       0.01128017 Eh      7.08 kcal/mol|
|  sn= 2 | S(rot)=       0.01062571 Eh      6.67 kcal/mol|
|  sn= 3 | S(rot)=       0.01024288 Eh      6.43 kcal/mol|
|  sn= 4 | S(rot)=       0.00997125 Eh      6.26 kcal/mol|
|  sn= 5 | S(rot)=       0.00976057 Eh      6.12 kcal/mol|
|  sn= 6 | S(rot)=       0.00958842 Eh      6.02 kcal/mol|
|  sn= 7 | S(rot)=       0.00944288 Eh      5.93 kcal/mol|
|  sn= 8 | S(rot)=       0.00931680 Eh      5.85 kcal/mol|
|  sn= 9 | S(rot)=       0.00920559 Eh      5.78 kcal/mol|
|  sn=10 | S(rot)=       0.00910611 Eh      5.71 kcal/mol|
|  sn=11 | S(rot)=       0.00901612 Eh      5.66 kcal/mol|
|  sn=12 | S(rot)=       0.00893397 Eh      5.61 kcal/mol|
 --------------------------------------------------------

-------------------
GIBBS FREE ENERGY
-------------------

The Gibbs free energy is G = H - T*S

Total enthalpy                    ...   -337.61371629 Eh
Total entropy correction          ...     -0.03113462 Eh    -19.54 kcal/mol
-----------------------------------------------------------------------
Final Gibbs free energy         ...   -337.64485091 Eh

For completeness - the Gibbs free energy minus the electronic energy
G-E(el)                           ...     -0.01454038 Eh     -9.12 kcal/mol

                             ****ORCA TERMINATED NORMALLY****
TOTAL RUN TIME: 0 days 0 hours 1 minutes 33 seconds 830 msec
