                         Program Version 5.0.4 -  RELEASE  -
|  1> ! UKS TightSCF wB97x-D3 def2-TZVPD xyzfile opt freq
|  2>
|  3> # CF3 radical 98.5 degrees fixed
|  4>
|  5> %maxcore 1000
|  6> %pal
|  7> nprocs 18
|  8> end
|  9>
| 10> %geom Constraints
| 11>         { A * 0 * C }
| 12>     end
| 13> end
| 14> * xyz 0 2
| 15> C 0.00 0.00 0.00
| 16> F 1.1503103144 0.0000000000 -0.6371900664
| 17> F -0.5751551572 0.9961979545 -0.6371900664
| 18> F -0.5751551572 -0.9961979545 -0.6371900664
| 19> **                         ****END OF INPUT****
 Total Charge           Charge          ....    0
 Multiplicity           Mult            ....    2
 Number of Electrons    NEL             ....   33
Dispersion correction           -0.000042385
FINAL SINGLE POINT ENERGY      -337.586543196590
Dispersion correction            ... done
Dispersion correction           -0.000051428
FINAL SINGLE POINT ENERGY      -337.590733383410
Dispersion correction            ... done
Dispersion correction           -0.000052888
FINAL SINGLE POINT ENERGY      -337.590805417922
Dispersion correction            ... done
Dispersion correction           -0.000053085
FINAL SINGLE POINT ENERGY      -337.590805337617
Dispersion correction            ... done
                    ***********************HURRAY********************

CARTESIAN COORDINATES (ANGSTROEM)
---------------------------------
  C      0.000017    0.000000    0.013717
  F      1.183305    0.000000   -0.641756
  F     -0.591661    1.024805   -0.641765
  F     -0.591661   -1.024805   -0.641765

 Multiplicity           Mult            ....    2
 Number of Electrons    NEL             ....   33
 Basis Dimension        Dim             ....  157

ORBITAL ENERGIES
----------------
                 SPIN UP ORBITALS
  NO   OCC          E(Eh)            E(eV)
   0   1.0000     -24.838628      -675.8934
   1   1.0000     -24.838608      -675.8929
   2   1.0000     -24.838605      -675.8928
   3   1.0000     -10.566745      -287.5358
   4   1.0000      -1.464966       -39.8638
   5   1.0000      -1.354062       -36.8459
   6   1.0000      -1.354049       -36.8455
   7   1.0000      -0.838166       -22.8076
   8   1.0000      -0.712696       -19.3935
   9   1.0000      -0.712691       -19.3933
  10   1.0000      -0.696083       -18.9414
  11   1.0000      -0.600100       -16.3295
  12   1.0000      -0.600094       -16.3294
  13   1.0000      -0.539071       -14.6689
  14   1.0000      -0.539068       -14.6688
  15   1.0000      -0.522486       -14.2176
  16   1.0000      -0.454051       -12.3554
  17   0.0000       0.072280         1.9668
  18   0.0000       0.102765         2.7964
  19   0.0000       0.102766         2.7964
  20   0.0000       0.111766         3.0413
  21   0.0000       0.155711         4.2371

                 SPIN DOWN ORBITALS
  NO   OCC          E(Eh)            E(eV)
   0   1.0000     -24.835742      -675.8149
   1   1.0000     -24.835725      -675.8144
   2   1.0000     -24.835715      -675.8142
   3   1.0000     -10.553684      -287.1803
   4   1.0000      -1.456058       -39.6214
   5   1.0000      -1.345272       -36.6067
   6   1.0000      -1.345258       -36.6063
   7   1.0000      -0.817547       -22.2466
   8   1.0000      -0.701296       -19.0832
   9   1.0000      -0.701292       -19.0831
  10   1.0000      -0.655429       -17.8351
  11   1.0000      -0.587976       -15.9996
  12   1.0000      -0.587970       -15.9995
  13   1.0000      -0.531987       -14.4761
  14   1.0000      -0.531984       -14.4760
  15   1.0000      -0.519131       -14.1263
  16   0.0000      -0.104066        -2.8318
  17   0.0000       0.082158         2.2356
  18   0.0000       0.107228         2.9178
  19   0.0000       0.107229         2.9179
  20   0.0000       0.124617         3.3910

MULLIKEN ATOMIC CHARGES AND SPIN POPULATIONS
--------------------------------------------
   0 C :    0.536588    0.767447
   1 F :   -0.178770    0.077566
   2 F :   -0.178907    0.077493
   3 F :   -0.178911    0.077494
Sum of atomic charges         :   -0.0000000

LOEWDIN ATOMIC CHARGES AND SPIN POPULATIONS
-------------------------------------------
   0 C :   -0.222042    0.626632
   1 F :    0.074045    0.124478
   2 F :    0.073998    0.124445
   3 F :    0.073998    0.124445

  Mayer bond orders larger than 0.100000
B(  0-C ,  1-F ) :   1.0596 B(  0-C ,  2-F ) :   1.0593 B(  0-C ,  3-F ) :   1.0593

Dispersion correction           -0.000053089
FINAL SINGLE POINT ENERGY      -337.590805332367

DIPOLE MOMENT
-------------
                                X             Y             Z
Electronic contribution:      0.00006      -0.00000       0.13994
Nuclear contribution   :      0.00001       0.00000       0.31713
                        -----------------------------------------
Total Dipole Moment    :      0.00007      -0.00000       0.45707
                        -----------------------------------------
Magnitude (a.u.)       :      0.45707
Magnitude (Debye)      :      1.16179

Dispersion correction in the Hessian             ... done   (      0.1 sec)

VIBRATIONAL FREQUENCIES
-----------------------

Scaling factor for frequencies =  1.000000000  (already applied!)

   0:         0.00 cm**-1
   1:         0.00 cm**-1
   2:         0.00 cm**-1
   3:         0.00 cm**-1
   4:         0.00 cm**-1
   5:         0.00 cm**-1
   6:       588.56 cm**-1
   7:       589.60 cm**-1
   8:       788.61 cm**-1
   9:      1036.67 cm**-1
  10:      1036.89 cm**-1
  11:      1082.51 cm**-1

IR SPECTRUM
-----------

 Mode   freq       eps      Int      T**2         TX        TY        TZ
       cm**-1   L/(mol*cm) km/mol    a.u.
----------------------------------------------------------------------------
  6:    588.56   0.000297    1.50  0.000157  ( 0.012544  0.000002  0.000063)
  7:    589.60   0.000291    1.47  0.000154  ( 0.000002 -0.012417 -0.000000)
  8:    788.61   0.002783   14.07  0.001101  ( 0.000101 -0.000000  0.033188)
  9:   1036.67   0.058989  298.11  0.017757  (-0.000223 -0.133256 -0.000000)
 10:   1036.89   0.059027  298.30  0.017765  (-0.133285  0.000223  0.000096)
 11:   1082.51   0.009046   45.71  0.002608  (-0.000168  0.000001 -0.051065)

--------------------------
THERMOCHEMISTRY AT 298.15K
--------------------------

Temperature         ... 298.15 K
Pressure            ... 1.00 atm
Total Mass          ... 69.00 AMU

Throughout the following assumptions are being made:
  (1) The electronic state is orbitally nondegenerate
      but the spin degeneracy is treated
  (2) There are no thermally accessible electronically excited states
  (3) Hindered rotations indicated by low frequency modes are not
      treated as such but are treated as vibrations and this may
      cause some error
  (4) All equations used are the standard statistical mechanics
      equations for an ideal gas
  (5) All vibrations are strictly harmonic

freq.     588.56  E(vib)   ...       0.10
freq.     589.60  E(vib)   ...       0.10
freq.     788.61  E(vib)   ...       0.05
freq.    1036.67  E(vib)   ...       0.02
freq.    1036.89  E(vib)   ...       0.02
freq.    1082.51  E(vib)   ...       0.02

------------
INNER ENERGY
------------

The inner energy is: U= E(el) + E(ZPE) + E(vib) + E(rot) + E(trans)
    E(el)   - is the total energy from the electronic structure calculation
              = E(kin-el) + E(nuc-el) + E(el-el) + E(nuc-nuc)
    E(ZPE)  - the the zero temperature vibrational energy from the frequency calculation
    E(vib)  - the the finite temperature correction to E(ZPE) due to population
              of excited vibrational states
    E(rot)  - is the rotational thermal energy
    E(trans)- is the translational thermal energy

Summary of contributions to the inner energy U:
Electronic energy                ...   -337.59080533 Eh
Zero point energy                ...      0.01167069 Eh       7.32 kcal/mol
Thermal vibrational correction   ...      0.00050454 Eh       0.32 kcal/mol
Thermal rotational correction    ...      0.00141627 Eh       0.89 kcal/mol
Thermal translational correction ...      0.00141627 Eh       0.89 kcal/mol
-----------------------------------------------------------------------
Total thermal energy                   -337.57579756 Eh

Summary of corrections to the electronic energy:
(perhaps to be used in another calculation)
Total thermal correction                  0.00333708 Eh       2.09 kcal/mol
Non-thermal (ZPE) correction              0.01167069 Eh       7.32 kcal/mol
-----------------------------------------------------------------------
Total correction                          0.01500777 Eh       9.42 kcal/mol

--------
ENTHALPY
--------

The enthalpy is H = U + kB*T
                kB is Boltzmann's constant
Total free energy                 ...   -337.57579756 Eh
Thermal Enthalpy correction       ...      0.00094421 Eh       0.59 kcal/mol
-----------------------------------------------------------------------
Total Enthalpy                    ...   -337.57485335 Eh

Note: Rotational entropy computed according to Herzberg
Infrared and Raman Spectra, Chapter V,1, Van Nostrand Reinhold, 1945
Point Group:  C3v, Symmetry Number:   3
Rotational constants in cm-1:     0.381701     0.381682     0.211231

Vibrational entropy computed according to the QRRHO of S. Grimme
Chem.Eur.J. 2012 18 9955

-------
ENTROPY
-------

The entropy contributions are T*S = T*(S(el)+S(vib)+S(rot)+S(trans))
     S(el)   - electronic entropy
     S(vib)  - vibrational entropy
     S(rot)  - rotational entropy
     S(trans)- translational entropy
The entropies will be listed as multiplied by the temperature to get
units of energy

Electronic entropy                ...      0.00065446 Eh      0.41 kcal/mol
Vibrational entropy               ...      0.00065758 Eh      0.41 kcal/mol
Rotational entropy                ...      0.01011691 Eh      6.35 kcal/mol
Translational entropy             ...      0.01834582 Eh     11.51 kcal/mol
-----------------------------------------------------------------------
Final entropy term                ...      0.02977477 Eh     18.68 kcal/mol

In case the symmetry of your molecule has not been determined correctly
or in case you have a reason to use a different symmetry number we print
out the resulting rotational entropy values for sn=1,12 :
 --------------------------------------------------------
|  sn= 1 | S(rot)=       0.01115420 Eh      7.00 kcal/mol|
|  sn= 2 | S(rot)=       0.01049974 Eh      6.59 kcal/mol|
|  sn= 3 | S(rot)=       0.01011691 Eh      6.35 kcal/mol|
|  sn= 4 | S(rot)=       0.00984528 Eh      6.18 kcal/mol|
|  sn= 5 | S(rot)=       0.00963460 Eh      6.05 kcal/mol|
|  sn= 6 | S(rot)=       0.00946245 Eh      5.94 kcal/mol|
|  sn= 7 | S(rot)=       0.00931691 Eh      5.85 kcal/mol|
|  sn= 8 | S(rot)=       0.00919083 Eh      5.77 kcal/mol|
|  sn= 9 | S(rot)=       0.00907962 Eh      5.70 kcal/mol|
|  sn=10 | S(rot)=       0.00898014 Eh      5.64 kcal/mol|
|  sn=11 | S(rot)=       0.00889015 Eh      5.58 kcal/mol|
|  sn=12 | S(rot)=       0.00880800 Eh      5.53 kcal/mol|
 --------------------------------------------------------

-------------------
GIBBS FREE ENERGY
-------------------

The Gibbs free energy is G = H - T*S

Total enthalpy                    ...   -337.57485335 Eh
Total entropy correction          ...     -0.02977477 Eh    -18.68 kcal/mol
-----------------------------------------------------------------------
Final Gibbs free energy         ...   -337.60462812 Eh

For completeness - the Gibbs free energy minus the electronic energy
G-E(el)                           ...     -0.01382279 Eh     -8.67 kcal/mol

                             ****ORCA TERMINATED NORMALLY****
TOTAL RUN TIME: 0 days 0 hours 1 minutes 55 seconds 685 msec
