                         Program Version 5.0.4 -  RELEASE  -
|  1> ! UKS TightSCF wB97x-D3 def2-TZVPD xyzfile opt freq
|  2>
|  3> # CF3 radical 110.5 degrees fixed
|  4>
|  5> %maxcore 1000
|  6> %pal
|  7> nprocs 18
|  8> end
|  9>
| 10> %geom Constraints
| 11>         { A * 0 * C }
| 12>     end
| 13> end
| 14> * xyz 0 2
| 15> C 0.00 0.00 0.00
| 16> F 1.2476143525 0.0000000000 -0.4155519551
| 17> F -0.6238071763 1.0804657234 -0.4155519551
| 18> F -0.6238071763 -1.0804657234 -0.4155519551
| 19> **                         ****END OF INPUT****
 Total Charge           Charge          ....    0
 Multiplicity           Mult            ....    2
 Number of Electrons    NEL             ....   33
Dispersion correction           -0.000079642
FINAL SINGLE POINT ENERGY      -337.632483010655
Dispersion correction            ... done
Dispersion correction           -0.000080192
FINAL SINGLE POINT ENERGY      -337.632489596380
Dispersion correction            ... done
                    ***********************HURRAY********************

CARTESIAN COORDINATES (ANGSTROEM)
---------------------------------
  C      0.000219    0.000000    0.000338
  F      1.248643    0.000000   -0.415616
  F     -0.624431    1.081856   -0.415689
  F     -0.624431   -1.081856   -0.415689

 Multiplicity           Mult            ....    2
 Number of Electrons    NEL             ....   33
 Basis Dimension        Dim             ....  157

ORBITAL ENERGIES
----------------
                 SPIN UP ORBITALS
  NO   OCC          E(Eh)            E(eV)
   0   1.0000     -24.852744      -676.2775
   1   1.0000     -24.852498      -676.2709
   2   1.0000     -24.852492      -676.2707
   3   1.0000     -10.541931      -286.8605
   4   1.0000      -1.471036       -40.0289
   5   1.0000      -1.382320       -37.6148
   6   1.0000      -1.382041       -37.6072
   7   1.0000      -0.839036       -22.8313
   8   1.0000      -0.732986       -19.9456
   9   1.0000      -0.732911       -19.9435
  10   1.0000      -0.701358       -19.0849
  11   1.0000      -0.607229       -16.5235
  12   1.0000      -0.607218       -16.5232
  13   1.0000      -0.571659       -15.5556
  14   1.0000      -0.571567       -15.5531
  15   1.0000      -0.546191       -14.8626
  16   1.0000      -0.379491       -10.3265
  17   0.0000       0.070360         1.9146
  18   0.0000       0.104136         2.8337
  19   0.0000       0.104148         2.8340
  20   0.0000       0.114175         3.1069
  21   0.0000       0.158670         4.3176

                 SPIN DOWN ORBITALS
  NO   OCC          E(Eh)            E(eV)
   0   1.0000     -24.849747      -676.1960
   1   1.0000     -24.849504      -676.1894
   2   1.0000     -24.849493      -676.1891
   3   1.0000     -10.529088      -286.5111
   4   1.0000      -1.461149       -39.7599
   5   1.0000      -1.373732       -37.3811
   6   1.0000      -1.373452       -37.3735
   7   1.0000      -0.820793       -22.3349
   8   1.0000      -0.722652       -19.6644
   9   1.0000      -0.722573       -19.6622
  10   1.0000      -0.663097       -18.0438
  11   1.0000      -0.596252       -16.2248
  12   1.0000      -0.596223       -16.2240
  13   1.0000      -0.562507       -15.3066
  14   1.0000      -0.562392       -15.3035
  15   1.0000      -0.542918       -14.7735
  16   0.0000      -0.027114        -0.7378
  17   0.0000       0.081954         2.2301
  18   0.0000       0.107362         2.9215
  19   0.0000       0.107376         2.9219
  20   0.0000       0.130465         3.5501

MULLIKEN ATOMIC CHARGES AND SPIN POPULATIONS
--------------------------------------------
   0 C :    0.534738    0.810789
   1 F :   -0.178037    0.063068
   2 F :   -0.178351    0.063071
   3 F :   -0.178350    0.063071
Sum of atomic charges         :   -0.0000000

LOEWDIN ATOMIC CHARGES AND SPIN POPULATIONS
-------------------------------------------
   0 C :   -0.401764    0.615429
   1 F :    0.134477    0.128245
   2 F :    0.133643    0.128163
   3 F :    0.133643    0.128163

  Mayer bond orders larger than 0.100000
B(  0-C ,  1-F ) :   1.0519 B(  0-C ,  2-F ) :   1.0513 B(  0-C ,  3-F ) :   1.0513

Dispersion correction           -0.000080320
FINAL SINGLE POINT ENERGY      -337.632489846923

DIPOLE MOMENT
-------------
                                X             Y             Z
Electronic contribution:      0.00144       0.00000      -0.06948
Nuclear contribution   :      0.00014       0.00000       0.20127
                        -----------------------------------------
Total Dipole Moment    :      0.00158       0.00000       0.13179
                        -----------------------------------------
Magnitude (a.u.)       :      0.13180
Magnitude (Debye)      :      0.33501

Dispersion correction in the Hessian             ... done   (      0.1 sec)

VIBRATIONAL FREQUENCIES
-----------------------

Scaling factor for frequencies =  1.000000000  (already applied!)

   0:         0.00 cm**-1
   1:         0.00 cm**-1
   2:         0.00 cm**-1
   3:         0.00 cm**-1
   4:         0.00 cm**-1
   5:         0.00 cm**-1
   6:       517.05 cm**-1
   7:       517.31 cm**-1
   8:       714.89 cm**-1
   9:      1104.90 cm**-1
  10:      1256.37 cm**-1
  11:      1258.72 cm**-1

IR SPECTRUM
-----------

 Mode   freq       eps      Int      T**2         TX        TY        TZ
       cm**-1   L/(mol*cm) km/mol    a.u.
----------------------------------------------------------------------------
  6:    517.05   0.000300    1.51  0.000181  (-0.013450  0.000001 -0.000009)
  7:    517.31   0.000296    1.50  0.000179  (-0.000001 -0.013365  0.000000)
  8:    714.89   0.002372   11.99  0.001035  (-0.000130 -0.000000  0.032175)
  9:   1104.90   0.007933   40.09  0.002241  ( 0.001132 -0.000000  0.047322)
 10:   1256.37   0.071388  360.76  0.017732  (-0.000016 -0.133160  0.000000)
 11:   1258.72   0.071432  360.99  0.017709  (-0.133076  0.000016  0.000293)

--------------------------
THERMOCHEMISTRY AT 298.15K
--------------------------

Temperature         ... 298.15 K
Pressure            ... 1.00 atm
Total Mass          ... 69.00 AMU

Throughout the following assumptions are being made:
  (1) The electronic state is orbitally nondegenerate
      but the spin degeneracy is treated
  (2) There are no thermally accessible electronically excited states
  (3) Hindered rotations indicated by low frequency modes are not
      treated as such but are treated as vibrations and this may
      cause some error
  (4) All equations used are the standard statistical mechanics
      equations for an ideal gas
  (5) All vibrations are strictly harmonic

freq.     517.05  E(vib)   ...       0.13
freq.     517.31  E(vib)   ...       0.13
freq.     714.89  E(vib)   ...       0.07
freq.    1104.90  E(vib)   ...       0.02
freq.    1256.37  E(vib)   ...       0.01
freq.    1258.72  E(vib)   ...       0.01

------------
INNER ENERGY
------------

The inner energy is: U= E(el) + E(ZPE) + E(vib) + E(rot) + E(trans)
    E(el)   - is the total energy from the electronic structure calculation
              = E(kin-el) + E(nuc-el) + E(el-el) + E(nuc-nuc)
    E(ZPE)  - the the zero temperature vibrational energy from the frequency calculation
    E(vib)  - the the finite temperature correction to E(ZPE) due to population
              of excited vibrational states
    E(rot)  - is the rotational thermal energy
    E(trans)- is the translational thermal energy

Summary of contributions to the inner energy U:
Electronic energy                ...   -337.63248985 Eh
Zero point energy                ...      0.01223203 Eh       7.68 kcal/mol
Thermal vibrational correction   ...      0.00058132 Eh       0.36 kcal/mol
Thermal rotational correction    ...      0.00141627 Eh       0.89 kcal/mol
Thermal translational correction ...      0.00141627 Eh       0.89 kcal/mol
-----------------------------------------------------------------------
Total thermal energy                   -337.61684395 Eh

Summary of corrections to the electronic energy:
(perhaps to be used in another calculation)
Total thermal correction                  0.00341386 Eh       2.14 kcal/mol
Non-thermal (ZPE) correction              0.01223203 Eh       7.68 kcal/mol
-----------------------------------------------------------------------
Total correction                          0.01564589 Eh       9.82 kcal/mol

--------
ENTHALPY
--------

The enthalpy is H = U + kB*T
                kB is Boltzmann's constant
Total free energy                 ...   -337.61684395 Eh
Thermal Enthalpy correction       ...      0.00094421 Eh       0.59 kcal/mol
-----------------------------------------------------------------------
Total Enthalpy                    ...   -337.61589974 Eh

Note: Rotational entropy computed according to Herzberg
Infrared and Raman Spectra, Chapter V,1, Van Nostrand Reinhold, 1945
Point Group:  Cs, Symmetry Number:   1
Rotational constants in cm-1:     0.365264     0.364980     0.189612

Vibrational entropy computed according to the QRRHO of S. Grimme
Chem.Eur.J. 2012 18 9955

-------
ENTROPY
-------

The entropy contributions are T*S = T*(S(el)+S(vib)+S(rot)+S(trans))
     S(el)   - electronic entropy
     S(vib)  - vibrational entropy
     S(rot)  - rotational entropy
     S(trans)- translational entropy
The entropies will be listed as multiplied by the temperature to get
units of energy

Electronic entropy                ...      0.00065446 Eh      0.41 kcal/mol
Vibrational entropy               ...      0.00078413 Eh      0.49 kcal/mol
Rotational entropy                ...      0.01124708 Eh      7.06 kcal/mol
Translational entropy             ...      0.01834582 Eh     11.51 kcal/mol
-----------------------------------------------------------------------
Final entropy term                ...      0.03103148 Eh     19.47 kcal/mol

In case the symmetry of your molecule has not been determined correctly
or in case you have a reason to use a different symmetry number we print
out the resulting rotational entropy values for sn=1,12 :
 --------------------------------------------------------
|  sn= 1 | S(rot)=       0.01124708 Eh      7.06 kcal/mol|
|  sn= 2 | S(rot)=       0.01059262 Eh      6.65 kcal/mol|
|  sn= 3 | S(rot)=       0.01020979 Eh      6.41 kcal/mol|
|  sn= 4 | S(rot)=       0.00993816 Eh      6.24 kcal/mol|
|  sn= 5 | S(rot)=       0.00972747 Eh      6.10 kcal/mol|
|  sn= 6 | S(rot)=       0.00955533 Eh      6.00 kcal/mol|
|  sn= 7 | S(rot)=       0.00940978 Eh      5.90 kcal/mol|
|  sn= 8 | S(rot)=       0.00928371 Eh      5.83 kcal/mol|
|  sn= 9 | S(rot)=       0.00917250 Eh      5.76 kcal/mol|
|  sn=10 | S(rot)=       0.00907302 Eh      5.69 kcal/mol|
|  sn=11 | S(rot)=       0.00898303 Eh      5.64 kcal/mol|
|  sn=12 | S(rot)=       0.00890087 Eh      5.59 kcal/mol|
 --------------------------------------------------------

-------------------
GIBBS FREE ENERGY
-------------------

The Gibbs free energy is G = H - T*S

Total enthalpy                    ...   -337.61589974 Eh
Total entropy correction          ...     -0.03103148 Eh    -19.47 kcal/mol
-----------------------------------------------------------------------
Final Gibbs free energy         ...   -337.64693123 Eh

For completeness - the Gibbs free energy minus the electronic energy
G-E(el)                           ...     -0.01444138 Eh     -9.06 kcal/mol

                             ****ORCA TERMINATED NORMALLY****
TOTAL RUN TIME: 0 days 0 hours 2 minutes 35 seconds 114 msec
