                         Program Version 5.0.4 -  RELEASE  -
|  1> ! UKS TightSCF wB97x-D3 def2-TZVPD xyzfile opt freq
|  2>
|  3> # CF3 radical 115.5 degrees fixed
|  4>
|  5> %maxcore 1000
|  6> %pal
|  7> nprocs 18
|  8> end
|  9>
| 10> %geom Constraints
| 11>         { A * 0 * C }
| 12>     end
| 13> end
| 14> * xyz 0 2
| 15> C 0.00 0.00 0.00
| 16> F 1.2841795179 0.0000000000 -0.2830335064
| 17> F -0.6420897590 1.1121320855 -0.2830335064
| 18> F -0.6420897590 -1.1121320855 -0.2830335064
| 19> **                         ****END OF INPUT****
 Total Charge           Charge          ....    0
 Multiplicity           Mult            ....    2
 Number of Electrons    NEL             ....   33
Dispersion correction           -0.000099397
FINAL SINGLE POINT ENERGY      -337.626200119575
Dispersion correction            ... done
Dispersion correction           -0.000097064
FINAL SINGLE POINT ENERGY      -337.626273557455
Dispersion correction            ... done
Dispersion correction           -0.000096484
FINAL SINGLE POINT ENERGY      -337.626276820310
Dispersion correction            ... done
                    ***********************HURRAY********************

CARTESIAN COORDINATES (ANGSTROEM)
---------------------------------
  C     -0.000060   -0.000000   -0.000815
  F      1.279346   -0.000000   -0.282771
  F     -0.639643    1.107799   -0.282758
  F     -0.639643   -1.107799   -0.282757

 Multiplicity           Mult            ....    2
 Number of Electrons    NEL             ....   33
 Basis Dimension        Dim             ....  157

ORBITAL ENERGIES
----------------
                 SPIN UP ORBITALS
  NO   OCC          E(Eh)            E(eV)
   0   1.0000     -24.856980      -676.3928
   1   1.0000     -24.856973      -676.3926
   2   1.0000     -24.856922      -676.3912
   3   1.0000     -10.529972      -286.5351
   4   1.0000      -1.467877       -39.9430
   5   1.0000      -1.389216       -37.8025
   6   1.0000      -1.389135       -37.8003
   7   1.0000      -0.837857       -22.7993
   8   1.0000      -0.736644       -20.0451
   9   1.0000      -0.736625       -20.0446
  10   1.0000      -0.700911       -19.0728
  11   1.0000      -0.606718       -16.5096
  12   1.0000      -0.606713       -16.5095
  13   1.0000      -0.582826       -15.8595
  14   1.0000      -0.582805       -15.8589
  15   1.0000      -0.553366       -15.0579
  16   1.0000      -0.336337        -9.1522
  17   0.0000       0.065725         1.7885
  18   0.0000       0.101748         2.7687
  19   0.0000       0.101750         2.7688
  20   0.0000       0.116636         3.1738
  21   0.0000       0.155494         4.2312

                 SPIN DOWN ORBITALS
  NO   OCC          E(Eh)            E(eV)
   0   1.0000     -24.853986      -676.3113
   1   1.0000     -24.853975      -676.3110
   2   1.0000     -24.853925      -676.3097
   3   1.0000     -10.517145      -286.1861
   4   1.0000      -1.457351       -39.6565
   5   1.0000      -1.380946       -37.5775
   6   1.0000      -1.380869       -37.5753
   7   1.0000      -0.819190       -22.2913
   8   1.0000      -0.727216       -19.7885
   9   1.0000      -0.727198       -19.7881
  10   1.0000      -0.663600       -18.0575
  11   1.0000      -0.596994       -16.2450
  12   1.0000      -0.596977       -16.2446
  13   1.0000      -0.571204       -15.5432
  14   1.0000      -0.571174       -15.5424
  15   1.0000      -0.550176       -14.9710
  16   0.0000       0.013933         0.3791
  17   0.0000       0.080260         2.1840
  18   0.0000       0.105751         2.8776
  19   0.0000       0.105754         2.8777
  20   0.0000       0.133008         3.6193

MULLIKEN ATOMIC CHARGES AND SPIN POPULATIONS
--------------------------------------------
   0 C :    0.515963    0.840191
   1 F :   -0.171990    0.053265
   2 F :   -0.171986    0.053271
   3 F :   -0.171987    0.053272
Sum of atomic charges         :    0.0000000

LOEWDIN ATOMIC CHARGES AND SPIN POPULATIONS
-------------------------------------------
   0 C :   -0.446191    0.610838
   1 F :    0.148581    0.129692
   2 F :    0.148805    0.129735
   3 F :    0.148805    0.129735

  Mayer bond orders larger than 0.100000
B(  0-C ,  1-F ) :   1.0506 B(  0-C ,  2-F ) :   1.0506 B(  0-C ,  3-F ) :   1.0506

Dispersion correction           -0.000096494
FINAL SINGLE POINT ENERGY      -337.626276804376

DIPOLE MOMENT
-------------
                                X             Y             Z
Electronic contribution:     -0.00039      -0.00000      -0.15991
Nuclear contribution   :     -0.00004      -0.00000       0.13641
                        -----------------------------------------
Total Dipole Moment    :     -0.00043      -0.00000      -0.02350
                        -----------------------------------------
Magnitude (a.u.)       :      0.02351
Magnitude (Debye)      :      0.05975

Dispersion correction in the Hessian             ... done   (      0.1 sec)

VIBRATIONAL FREQUENCIES
-----------------------

Scaling factor for frequencies =  1.000000000  (already applied!)

   0:         0.00 cm**-1
   1:         0.00 cm**-1
   2:         0.00 cm**-1
   3:         0.00 cm**-1
   4:         0.00 cm**-1
   5:         0.00 cm**-1
   6:       486.06 cm**-1
   7:       486.11 cm**-1
   8:       647.92 cm**-1
   9:      1031.01 cm**-1
  10:      1330.61 cm**-1
  11:      1331.63 cm**-1

IR SPECTRUM
-----------

 Mode   freq       eps      Int      T**2         TX        TY        TZ
       cm**-1   L/(mol*cm) km/mol    a.u.
----------------------------------------------------------------------------
  6:    486.06   0.000356    1.80  0.000228  ( 0.000019  0.015112 -0.000000)
  7:    486.11   0.000357    1.80  0.000229  (-0.015131  0.000019 -0.000008)
  8:    647.92   0.002367   11.96  0.001140  ( 0.000026 -0.000000  0.033763)
  9:   1031.01   0.004249   21.47  0.001286  (-0.000080 -0.000000  0.035862)
 10:   1330.61   0.073557  371.73  0.017251  (-0.131344  0.000028 -0.000073)
 11:   1331.63   0.073579  371.84  0.017243  (-0.000028 -0.131313 -0.000000)

--------------------------
THERMOCHEMISTRY AT 298.15K
--------------------------

Temperature         ... 298.15 K
Pressure            ... 1.00 atm
Total Mass          ... 69.00 AMU

Throughout the following assumptions are being made:
  (1) The electronic state is orbitally nondegenerate
      but the spin degeneracy is treated
  (2) There are no thermally accessible electronically excited states
  (3) Hindered rotations indicated by low frequency modes are not
      treated as such but are treated as vibrations and this may
      cause some error
  (4) All equations used are the standard statistical mechanics
      equations for an ideal gas
  (5) All vibrations are strictly harmonic

freq.     486.06  E(vib)   ...       0.15
freq.     486.11  E(vib)   ...       0.15
freq.     647.92  E(vib)   ...       0.08
freq.    1031.01  E(vib)   ...       0.02
freq.    1330.61  E(vib)   ...       0.01
freq.    1331.63  E(vib)   ...       0.01

------------
INNER ENERGY
------------

The inner energy is: U= E(el) + E(ZPE) + E(vib) + E(rot) + E(trans)
    E(el)   - is the total energy from the electronic structure calculation
              = E(kin-el) + E(nuc-el) + E(el-el) + E(nuc-nuc)
    E(ZPE)  - the the zero temperature vibrational energy from the frequency calculation
    E(vib)  - the the finite temperature correction to E(ZPE) due to population
              of excited vibrational states
    E(rot)  - is the rotational thermal energy
    E(trans)- is the translational thermal energy

Summary of contributions to the inner energy U:
Electronic energy                ...   -337.62627680 Eh
Zero point energy                ...      0.01210467 Eh       7.60 kcal/mol
Thermal vibrational correction   ...      0.00065707 Eh       0.41 kcal/mol
Thermal rotational correction    ...      0.00141627 Eh       0.89 kcal/mol
Thermal translational correction ...      0.00141627 Eh       0.89 kcal/mol
-----------------------------------------------------------------------
Total thermal energy                   -337.61068252 Eh

Summary of corrections to the electronic energy:
(perhaps to be used in another calculation)
Total thermal correction                  0.00348962 Eh       2.19 kcal/mol
Non-thermal (ZPE) correction              0.01210467 Eh       7.60 kcal/mol
-----------------------------------------------------------------------
Total correction                          0.01559429 Eh       9.79 kcal/mol

--------
ENTHALPY
--------

The enthalpy is H = U + kB*T
                kB is Boltzmann's constant
Total free energy                 ...   -337.61068252 Eh
Thermal Enthalpy correction       ...      0.00094421 Eh       0.59 kcal/mol
-----------------------------------------------------------------------
Total Enthalpy                    ...   -337.60973831 Eh

Note: Rotational entropy computed according to Herzberg
Infrared and Raman Spectra, Chapter V,1, Van Nostrand Reinhold, 1945
Point Group:  Cs, Symmetry Number:   1
Rotational constants in cm-1:     0.355512     0.355429     0.180741

Vibrational entropy computed according to the QRRHO of S. Grimme
Chem.Eur.J. 2012 18 9955

-------
ENTROPY
-------

The entropy contributions are T*S = T*(S(el)+S(vib)+S(rot)+S(trans))
     S(el)   - electronic entropy
     S(vib)  - vibrational entropy
     S(rot)  - rotational entropy
     S(trans)- translational entropy
The entropies will be listed as multiplied by the temperature to get
units of energy

Electronic entropy                ...      0.00065446 Eh      0.41 kcal/mol
Vibrational entropy               ...      0.00090036 Eh      0.56 kcal/mol
Rotational entropy                ...      0.01129499 Eh      7.09 kcal/mol
Translational entropy             ...      0.01834582 Eh     11.51 kcal/mol
-----------------------------------------------------------------------
Final entropy term                ...      0.03119562 Eh     19.58 kcal/mol

In case the symmetry of your molecule has not been determined correctly
or in case you have a reason to use a different symmetry number we print
out the resulting rotational entropy values for sn=1,12 :
 --------------------------------------------------------
|  sn= 1 | S(rot)=       0.01129499 Eh      7.09 kcal/mol|
|  sn= 2 | S(rot)=       0.01064053 Eh      6.68 kcal/mol|
|  sn= 3 | S(rot)=       0.01025770 Eh      6.44 kcal/mol|
|  sn= 4 | S(rot)=       0.00998608 Eh      6.27 kcal/mol|
|  sn= 5 | S(rot)=       0.00977539 Eh      6.13 kcal/mol|
|  sn= 6 | S(rot)=       0.00960324 Eh      6.03 kcal/mol|
|  sn= 7 | S(rot)=       0.00945770 Eh      5.93 kcal/mol|
|  sn= 8 | S(rot)=       0.00933162 Eh      5.86 kcal/mol|
|  sn= 9 | S(rot)=       0.00922041 Eh      5.79 kcal/mol|
|  sn=10 | S(rot)=       0.00912093 Eh      5.72 kcal/mol|
|  sn=11 | S(rot)=       0.00903094 Eh      5.67 kcal/mol|
|  sn=12 | S(rot)=       0.00894879 Eh      5.62 kcal/mol|
 --------------------------------------------------------

-------------------
GIBBS FREE ENERGY
-------------------

The Gibbs free energy is G = H - T*S

Total enthalpy                    ...   -337.60973831 Eh
Total entropy correction          ...     -0.03119562 Eh    -19.58 kcal/mol
-----------------------------------------------------------------------
Final Gibbs free energy         ...   -337.64093393 Eh

For completeness - the Gibbs free energy minus the electronic energy
G-E(el)                           ...     -0.01465713 Eh     -9.20 kcal/mol

                             ****ORCA TERMINATED NORMALLY****
TOTAL RUN TIME: 0 days 0 hours 1 minutes 36 seconds 854 msec
