                         Program Version 5.0.4 -  RELEASE  -
|  1> ! UKS TightSCF wB97x-D3 def2-TZVPD xyzfile opt freq
|  2>
|  3> # CF3 radical 100.5 degrees fixed
|  4>
|  5> %maxcore 1000
|  6> %pal
|  7> nprocs 18
|  8> end
|  9>
| 10> %geom Constraints
| 11>         { A * 0 * C }
| 12>     end
| 13> end
| 14> * xyz 0 2
| 15> C 0.00 0.00 0.00
| 16> F 1.1674334318 0.0000000000 -0.6052472076
| 17> F -0.5837167159 1.0110270092 -0.6052472076
| 18> F -0.5837167159 -1.0110270092 -0.6052472076
| 19> **                         ****END OF INPUT****
 Total Charge           Charge          ....    0
 Multiplicity           Mult            ....    2
 Number of Electrons    NEL             ....   33
Dispersion correction           -0.000047548
FINAL SINGLE POINT ENERGY      -337.599520322243
Dispersion correction            ... done
Dispersion correction           -0.000055302
FINAL SINGLE POINT ENERGY      -337.602088105370
Dispersion correction            ... done
Dispersion correction           -0.000056614
FINAL SINGLE POINT ENERGY      -337.602135841900
Dispersion correction            ... done
                    ***********************HURRAY********************

CARTESIAN COORDINATES (ANGSTROEM)
---------------------------------
  C     -0.000067   -0.000000    0.010225
  F      1.193820   -0.000000   -0.608679
  F     -0.596876    1.033744   -0.608644
  F     -0.596876   -1.033744   -0.608644

 Multiplicity           Mult            ....    2
 Number of Electrons    NEL             ....   33
 Basis Dimension        Dim             ....  157

ORBITAL ENERGIES
----------------
                 SPIN UP ORBITALS
  NO   OCC          E(Eh)            E(eV)
   0   1.0000     -24.841159      -675.9623
   1   1.0000     -24.841156      -675.9622
   2   1.0000     -24.841089      -675.9604
   3   1.0000     -10.562364      -287.4165
   4   1.0000      -1.467038       -39.9201
   5   1.0000      -1.359536       -36.9948
   6   1.0000      -1.359460       -36.9928
   7   1.0000      -0.838399       -22.8140
   8   1.0000      -0.716920       -19.5084
   9   1.0000      -0.716893       -19.5077
  10   1.0000      -0.697382       -18.9767
  11   1.0000      -0.601769       -16.3750
  12   1.0000      -0.601766       -16.3749
  13   1.0000      -0.544996       -14.8301
  14   1.0000      -0.544965       -14.8292
  15   1.0000      -0.526875       -14.3370
  16   1.0000      -0.443253       -12.0615
  17   0.0000       0.072337         1.9684
  18   0.0000       0.104044         2.8312
  19   0.0000       0.104045         2.8312
  20   0.0000       0.111993         3.0475
  21   0.0000       0.158741         4.3196

                 SPIN DOWN ORBITALS
  NO   OCC          E(Eh)            E(eV)
   0   1.0000     -24.838261      -675.8834
   1   1.0000     -24.838253      -675.8832
   2   1.0000     -24.838186      -675.8814
   3   1.0000     -10.549329      -287.0618
   4   1.0000      -1.458019       -39.6747
   5   1.0000      -1.350780       -36.7566
   6   1.0000      -1.350703       -36.7545
   7   1.0000      -0.818430       -22.2706
   8   1.0000      -0.705658       -19.2019
   9   1.0000      -0.705633       -19.2013
  10   1.0000      -0.657040       -17.8790
  11   1.0000      -0.589827       -16.0500
  12   1.0000      -0.589820       -16.0498
  13   1.0000      -0.537695       -14.6314
  14   1.0000      -0.537662       -14.6305
  15   1.0000      -0.523541       -14.2463
  16   0.0000      -0.092431        -2.5152
  17   0.0000       0.082251         2.2382
  18   0.0000       0.107736         2.9317
  19   0.0000       0.107739         2.9317
  20   0.0000       0.125527         3.4158

MULLIKEN ATOMIC CHARGES AND SPIN POPULATIONS
--------------------------------------------
   0 C :    0.539787    0.774070
   1 F :   -0.179963    0.075338
   2 F :   -0.179913    0.075296
   3 F :   -0.179911    0.075295
Sum of atomic charges         :   -0.0000000

LOEWDIN ATOMIC CHARGES AND SPIN POPULATIONS
-------------------------------------------
   0 C :   -0.258446    0.625327
   1 F :    0.086004    0.124902
   2 F :    0.086221    0.124885
   3 F :    0.086221    0.124885

  Mayer bond orders larger than 0.100000
B(  0-C ,  1-F ) :   1.0585 B(  0-C ,  2-F ) :   1.0584 B(  0-C ,  3-F ) :   1.0584

Dispersion correction           -0.000056752
FINAL SINGLE POINT ENERGY      -337.602135613242

DIPOLE MOMENT
-------------
                                X             Y             Z
Electronic contribution:     -0.00045      -0.00000       0.10624
Nuclear contribution   :     -0.00004      -0.00000       0.29943
                        -----------------------------------------
Total Dipole Moment    :     -0.00050      -0.00000       0.40567
                        -----------------------------------------
Magnitude (a.u.)       :      0.40567
Magnitude (Debye)      :      1.03113

Dispersion correction in the Hessian             ... done   (      0.1 sec)

VIBRATIONAL FREQUENCIES
-----------------------

Scaling factor for frequencies =  1.000000000  (already applied!)

   0:         0.00 cm**-1
   1:         0.00 cm**-1
   2:         0.00 cm**-1
   3:         0.00 cm**-1
   4:         0.00 cm**-1
   5:         0.00 cm**-1
   6:       577.04 cm**-1
   7:       577.96 cm**-1
   8:       776.61 cm**-1
   9:      1078.53 cm**-1
  10:      1079.28 cm**-1
  11:      1098.69 cm**-1

IR SPECTRUM
-----------

 Mode   freq       eps      Int      T**2         TX        TY        TZ
       cm**-1   L/(mol*cm) km/mol    a.u.
----------------------------------------------------------------------------
  6:    577.04   0.000296    1.50  0.000160  (-0.012649  0.000001 -0.000079)
  7:    577.96   0.000292    1.47  0.000157  (-0.000001 -0.012546 -0.000000)
  8:    776.61   0.002610   13.19  0.001049  (-0.000099 -0.000000 -0.032383)
  9:   1078.53   0.061297  309.77  0.017736  ( 0.133170 -0.000114 -0.001193)
 10:   1079.28   0.061284  309.70  0.017720  (-0.000114 -0.133115  0.000002)
 11:   1098.69   0.009322   47.11  0.002648  (-0.003004 -0.000002 -0.051368)

--------------------------
THERMOCHEMISTRY AT 298.15K
--------------------------

Temperature         ... 298.15 K
Pressure            ... 1.00 atm
Total Mass          ... 69.00 AMU

Throughout the following assumptions are being made:
  (1) The electronic state is orbitally nondegenerate
      but the spin degeneracy is treated
  (2) There are no thermally accessible electronically excited states
  (3) Hindered rotations indicated by low frequency modes are not
      treated as such but are treated as vibrations and this may
      cause some error
  (4) All equations used are the standard statistical mechanics
      equations for an ideal gas
  (5) All vibrations are strictly harmonic

freq.     577.04  E(vib)   ...       0.11
freq.     577.96  E(vib)   ...       0.11
freq.     776.61  E(vib)   ...       0.05
freq.    1078.53  E(vib)   ...       0.02
freq.    1079.28  E(vib)   ...       0.02
freq.    1098.69  E(vib)   ...       0.02

------------
INNER ENERGY
------------

The inner energy is: U= E(el) + E(ZPE) + E(vib) + E(rot) + E(trans)
    E(el)   - is the total energy from the electronic structure calculation
              = E(kin-el) + E(nuc-el) + E(el-el) + E(nuc-nuc)
    E(ZPE)  - the the zero temperature vibrational energy from the frequency calculation
    E(vib)  - the the finite temperature correction to E(ZPE) due to population
              of excited vibrational states
    E(rot)  - is the rotational thermal energy
    E(trans)- is the translational thermal energy

Summary of contributions to the inner energy U:
Electronic energy                ...   -337.60213561 Eh
Zero point energy                ...      0.01181940 Eh       7.42 kcal/mol
Thermal vibrational correction   ...      0.00051027 Eh       0.32 kcal/mol
Thermal rotational correction    ...      0.00141627 Eh       0.89 kcal/mol
Thermal translational correction ...      0.00141627 Eh       0.89 kcal/mol
-----------------------------------------------------------------------
Total thermal energy                   -337.58697340 Eh

Summary of corrections to the electronic energy:
(perhaps to be used in another calculation)
Total thermal correction                  0.00334281 Eh       2.10 kcal/mol
Non-thermal (ZPE) correction              0.01181940 Eh       7.42 kcal/mol
-----------------------------------------------------------------------
Total correction                          0.01516221 Eh       9.51 kcal/mol

--------
ENTHALPY
--------

The enthalpy is H = U + kB*T
                kB is Boltzmann's constant
Total free energy                 ...   -337.58697340 Eh
Thermal Enthalpy correction       ...      0.00094421 Eh       0.59 kcal/mol
-----------------------------------------------------------------------
Total Enthalpy                    ...   -337.58602919 Eh

Note: Rotational entropy computed according to Herzberg
Infrared and Raman Spectra, Chapter V,1, Van Nostrand Reinhold, 1945
Point Group:  Cs, Symmetry Number:   1
Rotational constants in cm-1:     0.379649     0.379572     0.207565

Vibrational entropy computed according to the QRRHO of S. Grimme
Chem.Eur.J. 2012 18 9955

-------
ENTROPY
-------

The entropy contributions are T*S = T*(S(el)+S(vib)+S(rot)+S(trans))
     S(el)   - electronic entropy
     S(vib)  - vibrational entropy
     S(rot)  - rotational entropy
     S(trans)- translational entropy
The entropies will be listed as multiplied by the temperature to get
units of energy

Electronic entropy                ...      0.00065446 Eh      0.41 kcal/mol
Vibrational entropy               ...      0.00066863 Eh      0.42 kcal/mol
Rotational entropy                ...      0.01116762 Eh      7.01 kcal/mol
Translational entropy             ...      0.01834582 Eh     11.51 kcal/mol
-----------------------------------------------------------------------
Final entropy term                ...      0.03083653 Eh     19.35 kcal/mol

In case the symmetry of your molecule has not been determined correctly
or in case you have a reason to use a different symmetry number we print
out the resulting rotational entropy values for sn=1,12 :
 --------------------------------------------------------
|  sn= 1 | S(rot)=       0.01116762 Eh      7.01 kcal/mol|
|  sn= 2 | S(rot)=       0.01051317 Eh      6.60 kcal/mol|
|  sn= 3 | S(rot)=       0.01013034 Eh      6.36 kcal/mol|
|  sn= 4 | S(rot)=       0.00985871 Eh      6.19 kcal/mol|
|  sn= 5 | S(rot)=       0.00964802 Eh      6.05 kcal/mol|
|  sn= 6 | S(rot)=       0.00947588 Eh      5.95 kcal/mol|
|  sn= 7 | S(rot)=       0.00933033 Eh      5.85 kcal/mol|
|  sn= 8 | S(rot)=       0.00920426 Eh      5.78 kcal/mol|
|  sn= 9 | S(rot)=       0.00909305 Eh      5.71 kcal/mol|
|  sn=10 | S(rot)=       0.00899357 Eh      5.64 kcal/mol|
|  sn=11 | S(rot)=       0.00890358 Eh      5.59 kcal/mol|
|  sn=12 | S(rot)=       0.00882142 Eh      5.54 kcal/mol|
 --------------------------------------------------------

-------------------
GIBBS FREE ENERGY
-------------------

The Gibbs free energy is G = H - T*S

Total enthalpy                    ...   -337.58602919 Eh
Total entropy correction          ...     -0.03083653 Eh    -19.35 kcal/mol
-----------------------------------------------------------------------
Final Gibbs free energy         ...   -337.61686573 Eh

For completeness - the Gibbs free energy minus the electronic energy
G-E(el)                           ...     -0.01473011 Eh     -9.24 kcal/mol

                             ****ORCA TERMINATED NORMALLY****
TOTAL RUN TIME: 0 days 0 hours 2 minutes 30 seconds 585 msec
