                         Program Version 5.0.4 -  RELEASE  -
|  1> ! UKS TightSCF wB97x-D3 def2-TZVPD xyzfile opt freq
|  2>
|  3> # CF3 radical 111.5 degrees fixed
|  4>
|  5> %maxcore 1000
|  6> %pal
|  7> nprocs 18
|  8> end
|  9>
| 10> %geom Constraints
| 11>         { A * 0 * C }
| 12>     end
| 13> end
| 14> * xyz 0 2
| 15> C 0.00 0.00 0.00
| 16> F 1.2551196713 0.0000000000 -0.3923004089
| 17> F -0.6275598356 1.0869655201 -0.3923004089
| 18> F -0.6275598356 -1.0869655201 -0.3923004089
| 19> **                         ****END OF INPUT****
 Total Charge           Charge          ....    0
 Multiplicity           Mult            ....    2
 Number of Electrons    NEL             ....   33
Dispersion correction           -0.000083410
FINAL SINGLE POINT ENERGY      -337.632731072852
Dispersion correction            ... done
                    ***********************HURRAY********************

CARTESIAN COORDINATES (ANGSTROEM)
---------------------------------
  C      0.000155   -0.000000   -0.000046
  F      1.254689   -0.000000   -0.392253
  F     -0.627422    1.086951   -0.392301
  F     -0.627422   -1.086951   -0.392301

 Multiplicity           Mult            ....    2
 Number of Electrons    NEL             ....   33
 Basis Dimension        Dim             ....  157

ORBITAL ENERGIES
----------------
                 SPIN UP ORBITALS
  NO   OCC          E(Eh)            E(eV)
   0   1.0000     -24.853698      -676.3035
   1   1.0000     -24.853520      -676.2987
   2   1.0000     -24.853513      -676.2985
   3   1.0000     -10.539879      -286.8047
   4   1.0000      -1.470725       -40.0205
   5   1.0000      -1.383985       -37.6602
   6   1.0000      -1.383784       -37.6547
   7   1.0000      -0.838960       -22.8293
   8   1.0000      -0.734014       -19.9735
   9   1.0000      -0.733959       -19.9720
  10   1.0000      -0.701425       -19.0867
  11   1.0000      -0.607384       -16.5277
  12   1.0000      -0.607376       -16.5275
  13   1.0000      -0.574010       -15.6196
  14   1.0000      -0.573943       -15.6178
  15   1.0000      -0.547818       -14.9069
  16   1.0000      -0.371822       -10.1178
  17   0.0000       0.069789         1.8991
  18   0.0000       0.103768         2.8237
  19   0.0000       0.103777         2.8239
  20   0.0000       0.114560         3.1173
  21   0.0000       0.158072         4.3014

                 SPIN DOWN ORBITALS
  NO   OCC          E(Eh)            E(eV)
   0   1.0000     -24.850694      -676.2218
   1   1.0000     -24.850519      -676.2170
   2   1.0000     -24.850507      -676.2167
   3   1.0000     -10.527051      -286.4556
   4   1.0000      -1.460722       -39.7483
   5   1.0000      -1.375431       -37.4274
   6   1.0000      -1.375230       -37.4219
   7   1.0000      -0.820728       -22.3332
   8   1.0000      -0.723814       -19.6960
   9   1.0000      -0.723756       -19.6944
  10   1.0000      -0.663388       -18.0517
  11   1.0000      -0.596563       -16.2333
  12   1.0000      -0.596539       -16.2327
  13   1.0000      -0.564525       -15.3615
  14   1.0000      -0.564440       -15.3592
  15   1.0000      -0.544554       -14.8181
  16   0.0000      -0.019606        -0.5335
  17   0.0000       0.081785         2.2255
  18   0.0000       0.107117         2.9148
  19   0.0000       0.107128         2.9151
  20   0.0000       0.130997         3.5646

MULLIKEN ATOMIC CHARGES AND SPIN POPULATIONS
--------------------------------------------
   0 C :    0.531781    0.815420
   1 F :   -0.177108    0.061532
   2 F :   -0.177338    0.061525
   3 F :   -0.177334    0.061523
Sum of atomic charges         :   -0.0000000

LOEWDIN ATOMIC CHARGES AND SPIN POPULATIONS
-------------------------------------------
   0 C :   -0.411988    0.614325
   1 F :    0.137733    0.128602
   2 F :    0.137128    0.128537
   3 F :    0.137128    0.128537

  Mayer bond orders larger than 0.100000
B(  0-C ,  1-F ) :   1.0515 B(  0-C ,  2-F ) :   1.0510 B(  0-C ,  3-F ) :   1.0510

Dispersion correction           -0.000083308
FINAL SINGLE POINT ENERGY      -337.632731021150

DIPOLE MOMENT
-------------
                                X             Y             Z
Electronic contribution:      0.00103      -0.00000      -0.08772
Nuclear contribution   :      0.00010      -0.00000       0.18977
                        -----------------------------------------
Total Dipole Moment    :      0.00113      -0.00000       0.10205
                        -----------------------------------------
Magnitude (a.u.)       :      0.10206
Magnitude (Debye)      :      0.25941

Dispersion correction in the Hessian             ... done   (      0.1 sec)

VIBRATIONAL FREQUENCIES
-----------------------

Scaling factor for frequencies =  1.000000000  (already applied!)

   0:         0.00 cm**-1
   1:         0.00 cm**-1
   2:         0.00 cm**-1
   3:         0.00 cm**-1
   4:         0.00 cm**-1
   5:         0.00 cm**-1
   6:       510.79 cm**-1
   7:       511.09 cm**-1
   8:       706.98 cm**-1
   9:      1096.36 cm**-1
  10:      1271.43 cm**-1
  11:      1273.14 cm**-1

IR SPECTRUM
-----------

 Mode   freq       eps      Int      T**2         TX        TY        TZ
       cm**-1   L/(mol*cm) km/mol    a.u.
----------------------------------------------------------------------------
  6:    510.79   0.000302    1.52  0.000184  (-0.013575  0.000000 -0.000036)
  7:    511.09   0.000298    1.51  0.000182  ( 0.000000  0.013495  0.000000)
  8:    706.98   0.002378   12.02  0.001050  (-0.000088 -0.000000  0.032399)
  9:   1096.36   0.007474   37.77  0.002127  (-0.000725  0.000000 -0.046117)
 10:   1271.43   0.072127  364.50  0.017703  ( 0.000013 -0.133052 -0.000000)
 11:   1273.14   0.072165  364.69  0.017689  ( 0.132998  0.000013 -0.000157)

--------------------------
THERMOCHEMISTRY AT 298.15K
--------------------------

Temperature         ... 298.15 K
Pressure            ... 1.00 atm
Total Mass          ... 69.00 AMU

Throughout the following assumptions are being made:
  (1) The electronic state is orbitally nondegenerate
      but the spin degeneracy is treated
  (2) There are no thermally accessible electronically excited states
  (3) Hindered rotations indicated by low frequency modes are not
      treated as such but are treated as vibrations and this may
      cause some error
  (4) All equations used are the standard statistical mechanics
      equations for an ideal gas
  (5) All vibrations are strictly harmonic

freq.     510.79  E(vib)   ...       0.14
freq.     511.09  E(vib)   ...       0.14
freq.     706.98  E(vib)   ...       0.07
freq.    1096.36  E(vib)   ...       0.02
freq.    1271.43  E(vib)   ...       0.01
freq.    1273.14  E(vib)   ...       0.01

------------
INNER ENERGY
------------

The inner energy is: U= E(el) + E(ZPE) + E(vib) + E(rot) + E(trans)
    E(el)   - is the total energy from the electronic structure calculation
              = E(kin-el) + E(nuc-el) + E(el-el) + E(nuc-nuc)
    E(ZPE)  - the the zero temperature vibrational energy from the frequency calculation
    E(vib)  - the the finite temperature correction to E(ZPE) due to population
              of excited vibrational states
    E(rot)  - is the rotational thermal energy
    E(trans)- is the translational thermal energy

Summary of contributions to the inner energy U:
Electronic energy                ...   -337.63273102 Eh
Zero point energy                ...      0.01223329 Eh       7.68 kcal/mol
Thermal vibrational correction   ...      0.00059255 Eh       0.37 kcal/mol
Thermal rotational correction    ...      0.00141627 Eh       0.89 kcal/mol
Thermal translational correction ...      0.00141627 Eh       0.89 kcal/mol
-----------------------------------------------------------------------
Total thermal energy                   -337.61707264 Eh

Summary of corrections to the electronic energy:
(perhaps to be used in another calculation)
Total thermal correction                  0.00342509 Eh       2.15 kcal/mol
Non-thermal (ZPE) correction              0.01223329 Eh       7.68 kcal/mol
-----------------------------------------------------------------------
Total correction                          0.01565838 Eh       9.83 kcal/mol

--------
ENTHALPY
--------

The enthalpy is H = U + kB*T
                kB is Boltzmann's constant
Total free energy                 ...   -337.61707264 Eh
Thermal Enthalpy correction       ...      0.00094421 Eh       0.59 kcal/mol
-----------------------------------------------------------------------
Total Enthalpy                    ...   -337.61612843 Eh

Note: Rotational entropy computed according to Herzberg
Infrared and Raman Spectra, Chapter V,1, Van Nostrand Reinhold, 1945
Point Group:  Cs, Symmetry Number:   1
Rotational constants in cm-1:     0.363380     0.363177     0.187817

Vibrational entropy computed according to the QRRHO of S. Grimme
Chem.Eur.J. 2012 18 9955

-------
ENTROPY
-------

The entropy contributions are T*S = T*(S(el)+S(vib)+S(rot)+S(trans))
     S(el)   - electronic entropy
     S(vib)  - vibrational entropy
     S(rot)  - rotational entropy
     S(trans)- translational entropy
The entropies will be listed as multiplied by the temperature to get
units of energy

Electronic entropy                ...      0.00065446 Eh      0.41 kcal/mol
Vibrational entropy               ...      0.00080169 Eh      0.50 kcal/mol
Rotational entropy                ...      0.01125635 Eh      7.06 kcal/mol
Translational entropy             ...      0.01834582 Eh     11.51 kcal/mol
-----------------------------------------------------------------------
Final entropy term                ...      0.03105831 Eh     19.49 kcal/mol

In case the symmetry of your molecule has not been determined correctly
or in case you have a reason to use a different symmetry number we print
out the resulting rotational entropy values for sn=1,12 :
 --------------------------------------------------------
|  sn= 1 | S(rot)=       0.01125635 Eh      7.06 kcal/mol|
|  sn= 2 | S(rot)=       0.01060189 Eh      6.65 kcal/mol|
|  sn= 3 | S(rot)=       0.01021906 Eh      6.41 kcal/mol|
|  sn= 4 | S(rot)=       0.00994743 Eh      6.24 kcal/mol|
|  sn= 5 | S(rot)=       0.00973674 Eh      6.11 kcal/mol|
|  sn= 6 | S(rot)=       0.00956460 Eh      6.00 kcal/mol|
|  sn= 7 | S(rot)=       0.00941905 Eh      5.91 kcal/mol|
|  sn= 8 | S(rot)=       0.00929298 Eh      5.83 kcal/mol|
|  sn= 9 | S(rot)=       0.00918177 Eh      5.76 kcal/mol|
|  sn=10 | S(rot)=       0.00908229 Eh      5.70 kcal/mol|
|  sn=11 | S(rot)=       0.00899230 Eh      5.64 kcal/mol|
|  sn=12 | S(rot)=       0.00891014 Eh      5.59 kcal/mol|
 --------------------------------------------------------

-------------------
GIBBS FREE ENERGY
-------------------

The Gibbs free energy is G = H - T*S

Total enthalpy                    ...   -337.61612843 Eh
Total entropy correction          ...     -0.03105831 Eh    -19.49 kcal/mol
-----------------------------------------------------------------------
Final Gibbs free energy         ...   -337.64718674 Eh

For completeness - the Gibbs free energy minus the electronic energy
G-E(el)                           ...     -0.01445572 Eh     -9.07 kcal/mol

                             ****ORCA TERMINATED NORMALLY****
TOTAL RUN TIME: 0 days 0 hours 1 minutes 41 seconds 237 msec
