                         Program Version 5.0.4 -  RELEASE  -
|  1> ! UKS TightSCF wB97x-D3 def2-TZVPD xyzfile opt freq
|  2>
|  3> # CF3 radical 106.5 degrees fixed
|  4>
|  5> %maxcore 1000
|  6> %pal
|  7> nprocs 18
|  8> end
|  9>
| 10> %geom Constraints
| 11>         { A * 0 * C }
| 12>     end
| 13> end
| 14> * xyz 0 2
| 15> C 0.00 0.00 0.00
| 16> F 1.2166487947 0.0000000000 -0.4989896896
| 17> F -0.6083243973 1.0536487637 -0.4989896896
| 18> F -0.6083243973 -1.0536487637 -0.4989896896
| 19> **                         ****END OF INPUT****
 Total Charge           Charge          ....    0
 Multiplicity           Mult            ....    2
 Number of Electrons    NEL             ....   33
Dispersion correction           -0.000065559
FINAL SINGLE POINT ENERGY      -337.625644287454
Dispersion correction            ... done
Dispersion correction           -0.000068989
FINAL SINGLE POINT ENERGY      -337.625955914057
Dispersion correction            ... done
Dispersion correction           -0.000069678
FINAL SINGLE POINT ENERGY      -337.625965260497
Dispersion correction            ... done
                    ***********************HURRAY********************

CARTESIAN COORDINATES (ANGSTROEM)
---------------------------------
  C     -0.000078    0.000000    0.002921
  F      1.226256    0.000000   -0.499985
  F     -0.613089    1.061800   -0.499953
  F     -0.613089   -1.061800   -0.499953

 Multiplicity           Mult            ....    2
 Number of Electrons    NEL             ....   33
 Basis Dimension        Dim             ....  157

ORBITAL ENERGIES
----------------
                 SPIN UP ORBITALS
  NO   OCC          E(Eh)            E(eV)
   0   1.0000     -24.848308      -676.1568
   1   1.0000     -24.848303      -676.1567
   2   1.0000     -24.848216      -676.1543
   3   1.0000     -10.549947      -287.0787
   4   1.0000      -1.470795       -40.0224
   5   1.0000      -1.374210       -37.3942
   6   1.0000      -1.374112       -37.3915
   7   1.0000      -0.838980       -22.8298
   8   1.0000      -0.727635       -19.7999
   9   1.0000      -0.727603       -19.7991
  10   1.0000      -0.700354       -19.0576
  11   1.0000      -0.605741       -16.4830
  12   1.0000      -0.605740       -16.4830
  13   1.0000      -0.561604       -15.2820
  14   1.0000      -0.561559       -15.2808
  15   1.0000      -0.539060       -14.6686
  16   1.0000      -0.407383       -11.0855
  17   0.0000       0.071762         1.9527
  18   0.0000       0.105012         2.8575
  19   0.0000       0.105015         2.8576
  20   0.0000       0.113008         3.0751
  21   0.0000       0.160516         4.3679

                 SPIN DOWN ORBITALS
  NO   OCC          E(Eh)            E(eV)
   0   1.0000     -24.845352      -676.0764
   1   1.0000     -24.845342      -676.0761
   2   1.0000     -24.845256      -676.0738
   3   1.0000     -10.537026      -286.7271
   4   1.0000      -1.461318       -39.7645
   5   1.0000      -1.365537       -37.1581
   6   1.0000      -1.365439       -37.1555
   7   1.0000      -0.820360       -22.3231
   8   1.0000      -0.716858       -19.5067
   9   1.0000      -0.716839       -19.5062
  10   1.0000      -0.661195       -17.9920
  11   1.0000      -0.594304       -16.1718
  12   1.0000      -0.594302       -16.1718
  13   1.0000      -0.553411       -15.0591
  14   1.0000      -0.553362       -15.0577
  15   1.0000      -0.535764       -14.5789
  16   0.0000      -0.055039        -1.4977
  17   0.0000       0.082279         2.2389
  18   0.0000       0.107989         2.9385
  19   0.0000       0.107993         2.9386
  20   0.0000       0.128392         3.4937

MULLIKEN ATOMIC CHARGES AND SPIN POPULATIONS
--------------------------------------------
   0 C :    0.541575    0.794742
   1 F :   -0.180546    0.068412
   2 F :   -0.180514    0.068423
   3 F :   -0.180514    0.068423
Sum of atomic charges         :    0.0000000

LOEWDIN ATOMIC CHARGES AND SPIN POPULATIONS
-------------------------------------------
   0 C :   -0.352644    0.619864
   1 F :    0.117363    0.126712
   2 F :    0.117641    0.126712
   3 F :    0.117641    0.126712

  Mayer bond orders larger than 0.100000
B(  0-C ,  1-F ) :   1.0539 B(  0-C ,  2-F ) :   1.0540 B(  0-C ,  3-F ) :   1.0540

Dispersion correction           -0.000069702
FINAL SINGLE POINT ENERGY      -337.625965287191

DIPOLE MOMENT
-------------
                                X             Y             Z
Electronic contribution:     -0.00053       0.00000       0.00238
Nuclear contribution   :     -0.00005       0.00000       0.24330
                        -----------------------------------------
Total Dipole Moment    :     -0.00058       0.00000       0.24569
                        -----------------------------------------
Magnitude (a.u.)       :      0.24569
Magnitude (Debye)      :      0.62449

Dispersion correction in the Hessian             ... done   (      0.1 sec)

VIBRATIONAL FREQUENCIES
-----------------------

Scaling factor for frequencies =  1.000000000  (already applied!)

   0:         0.00 cm**-1
   1:         0.00 cm**-1
   2:         0.00 cm**-1
   3:         0.00 cm**-1
   4:         0.00 cm**-1
   5:         0.00 cm**-1
   6:       541.58 cm**-1
   7:       541.88 cm**-1
   8:       740.76 cm**-1
   9:      1119.21 cm**-1
  10:      1191.90 cm**-1
  11:      1193.11 cm**-1

IR SPECTRUM
-----------

 Mode   freq       eps      Int      T**2         TX        TY        TZ
       cm**-1   L/(mol*cm) km/mol    a.u.
----------------------------------------------------------------------------
  6:    541.58   0.000296    1.49  0.000170  ( 0.000000 -0.013054 -0.000000)
  7:    541.88   0.000295    1.49  0.000170  (-0.013026 -0.000000  0.000053)
  8:    740.76   0.002388   12.07  0.001006  ( 0.000009 -0.000000  0.031717)
  9:   1119.21   0.009044   45.70  0.002522  ( 0.000857 -0.000000 -0.050209)
 10:   1191.90   0.067817  342.72  0.017756  ( 0.133250  0.000009  0.000344)
 11:   1193.11   0.067755  342.41  0.017722  ( 0.000009 -0.133123  0.000000)

--------------------------
THERMOCHEMISTRY AT 298.15K
--------------------------

Temperature         ... 298.15 K
Pressure            ... 1.00 atm
Total Mass          ... 69.00 AMU

Throughout the following assumptions are being made:
  (1) The electronic state is orbitally nondegenerate
      but the spin degeneracy is treated
  (2) There are no thermally accessible electronically excited states
  (3) Hindered rotations indicated by low frequency modes are not
      treated as such but are treated as vibrations and this may
      cause some error
  (4) All equations used are the standard statistical mechanics
      equations for an ideal gas
  (5) All vibrations are strictly harmonic

freq.     541.58  E(vib)   ...       0.12
freq.     541.88  E(vib)   ...       0.12
freq.     740.76  E(vib)   ...       0.06
freq.    1119.21  E(vib)   ...       0.01
freq.    1191.90  E(vib)   ...       0.01
freq.    1193.11  E(vib)   ...       0.01

------------
INNER ENERGY
------------

The inner energy is: U= E(el) + E(ZPE) + E(vib) + E(rot) + E(trans)
    E(el)   - is the total energy from the electronic structure calculation
              = E(kin-el) + E(nuc-el) + E(el-el) + E(nuc-nuc)
    E(ZPE)  - the the zero temperature vibrational energy from the frequency calculation
    E(vib)  - the the finite temperature correction to E(ZPE) due to population
              of excited vibrational states
    E(rot)  - is the rotational thermal energy
    E(trans)- is the translational thermal energy

Summary of contributions to the inner energy U:
Electronic energy                ...   -337.62596529 Eh
Zero point energy                ...      0.01213909 Eh       7.62 kcal/mol
Thermal vibrational correction   ...      0.00054505 Eh       0.34 kcal/mol
Thermal rotational correction    ...      0.00141627 Eh       0.89 kcal/mol
Thermal translational correction ...      0.00141627 Eh       0.89 kcal/mol
-----------------------------------------------------------------------
Total thermal energy                   -337.61044861 Eh

Summary of corrections to the electronic energy:
(perhaps to be used in another calculation)
Total thermal correction                  0.00337759 Eh       2.12 kcal/mol
Non-thermal (ZPE) correction              0.01213909 Eh       7.62 kcal/mol
-----------------------------------------------------------------------
Total correction                          0.01551668 Eh       9.74 kcal/mol

--------
ENTHALPY
--------

The enthalpy is H = U + kB*T
                kB is Boltzmann's constant
Total free energy                 ...   -337.61044861 Eh
Thermal Enthalpy correction       ...      0.00094421 Eh       0.59 kcal/mol
-----------------------------------------------------------------------
Total Enthalpy                    ...   -337.60950440 Eh

Note: Rotational entropy computed according to Herzberg
Infrared and Raman Spectra, Chapter V,1, Van Nostrand Reinhold, 1945
Point Group:  Cs, Symmetry Number:   1
Rotational constants in cm-1:     0.371754     0.371657     0.196736

Vibrational entropy computed according to the QRRHO of S. Grimme
Chem.Eur.J. 2012 18 9955

-------
ENTROPY
-------

The entropy contributions are T*S = T*(S(el)+S(vib)+S(rot)+S(trans))
     S(el)   - electronic entropy
     S(vib)  - vibrational entropy
     S(rot)  - rotational entropy
     S(trans)- translational entropy
The entropies will be listed as multiplied by the temperature to get
units of energy

Electronic entropy                ...      0.00065446 Eh      0.41 kcal/mol
Vibrational entropy               ...      0.00072655 Eh      0.46 kcal/mol
Rotational entropy                ...      0.01121279 Eh      7.04 kcal/mol
Translational entropy             ...      0.01834582 Eh     11.51 kcal/mol
-----------------------------------------------------------------------
Final entropy term                ...      0.03093961 Eh     19.41 kcal/mol

In case the symmetry of your molecule has not been determined correctly
or in case you have a reason to use a different symmetry number we print
out the resulting rotational entropy values for sn=1,12 :
 --------------------------------------------------------
|  sn= 1 | S(rot)=       0.01121279 Eh      7.04 kcal/mol|
|  sn= 2 | S(rot)=       0.01055833 Eh      6.63 kcal/mol|
|  sn= 3 | S(rot)=       0.01017550 Eh      6.39 kcal/mol|
|  sn= 4 | S(rot)=       0.00990388 Eh      6.21 kcal/mol|
|  sn= 5 | S(rot)=       0.00969319 Eh      6.08 kcal/mol|
|  sn= 6 | S(rot)=       0.00952105 Eh      5.97 kcal/mol|
|  sn= 7 | S(rot)=       0.00937550 Eh      5.88 kcal/mol|
|  sn= 8 | S(rot)=       0.00924942 Eh      5.80 kcal/mol|
|  sn= 9 | S(rot)=       0.00913821 Eh      5.73 kcal/mol|
|  sn=10 | S(rot)=       0.00903873 Eh      5.67 kcal/mol|
|  sn=11 | S(rot)=       0.00894874 Eh      5.62 kcal/mol|
|  sn=12 | S(rot)=       0.00886659 Eh      5.56 kcal/mol|
 --------------------------------------------------------

-------------------
GIBBS FREE ENERGY
-------------------

The Gibbs free energy is G = H - T*S

Total enthalpy                    ...   -337.60950440 Eh
Total entropy correction          ...     -0.03093961 Eh    -19.41 kcal/mol
-----------------------------------------------------------------------
Final Gibbs free energy         ...   -337.64044401 Eh

For completeness - the Gibbs free energy minus the electronic energy
G-E(el)                           ...     -0.01447872 Eh     -9.09 kcal/mol

                             ****ORCA TERMINATED NORMALLY****
TOTAL RUN TIME: 0 days 0 hours 2 minutes 12 seconds 243 msec
