                         Program Version 5.0.4 -  RELEASE  -
|  1> ! UKS TightSCF wB97x-D3 def2-TZVPD xyzfile opt freq
|  2>
|  3> # CF3 radical 120.0 degrees fixed
|  4>
|  5> %maxcore 1000
|  6> %pal
|  7> nprocs 18
|  8> end
|  9>
| 10> %geom Constraints
| 11>         { A * 0 * C }
| 12>     end
| 13> end
| 14> * xyz 0 2
| 15> C 0.00 0.00 0.00
| 16> F 1.3150000000 0.0000000000 0.0000000000
| 17> F -0.6575000000 1.1388234060 0.0000000000
| 18> F -0.6575000000 -1.1388234060 0.0000000000
| 19> **                         ****END OF INPUT****
 Total Charge           Charge          ....    0
 Multiplicity           Mult            ....    2
 Number of Electrons    NEL             ....   33
Dispersion correction           -0.000118900
FINAL SINGLE POINT ENERGY      -337.591122144328
Dispersion correction            ... done
Dispersion correction           -0.000115705
FINAL SINGLE POINT ENERGY      -337.591224364932
Dispersion correction            ... done
Dispersion correction           -0.000115106
FINAL SINGLE POINT ENERGY      -337.591228074133
Dispersion correction            ... done
                    ***********************HURRAY********************

CARTESIAN COORDINATES (ANGSTROEM)
---------------------------------
  C      0.000119    0.000000   -0.000007
  F      1.309197    0.000000    0.000002
  F     -0.654658    1.134106    0.000002
  F     -0.654658   -1.134106    0.000002

 Multiplicity           Mult            ....    2
 Number of Electrons    NEL             ....   33
 Basis Dimension        Dim             ....  157

ORBITAL ENERGIES
----------------
                 SPIN UP ORBITALS
  NO   OCC          E(Eh)            E(eV)
   0   1.0000     -24.854640      -676.3291
   1   1.0000     -24.854573      -676.3273
   2   1.0000     -24.854562      -676.3270
   3   1.0000     -10.496437      -285.6226
   4   1.0000      -1.453429       -39.5498
   5   1.0000      -1.384970       -37.6869
   6   1.0000      -1.384817       -37.6828
   7   1.0000      -0.828348       -22.5405
   8   1.0000      -0.728731       -19.8298
   9   1.0000      -0.728690       -19.8287
  10   1.0000      -0.694566       -18.9001
  11   1.0000      -0.593153       -16.1405
  12   1.0000      -0.593125       -16.1397
  13   1.0000      -0.592577       -16.1248
  14   1.0000      -0.592498       -16.1227
  15   1.0000      -0.552593       -15.0368
  16   1.0000      -0.277154        -7.5417
  17   0.0000       0.047400         1.2898
  18   0.0000       0.100883         2.7452
  19   0.0000       0.100888         2.7453
  20   0.0000       0.123458         3.3595
  21   0.0000       0.136994         3.7278

                 SPIN DOWN ORBITALS
  NO   OCC          E(Eh)            E(eV)
   0   1.0000     -24.852069      -676.2592
   1   1.0000     -24.852010      -676.2576
   2   1.0000     -24.851994      -676.2571
   3   1.0000     -10.482807      -285.2517
   4   1.0000      -1.442146       -39.2428
   5   1.0000      -1.378478       -37.5103
   6   1.0000      -1.378346       -37.5067
   7   1.0000      -0.804406       -21.8890
   8   1.0000      -0.722091       -19.6491
   9   1.0000      -0.722070       -19.6485
  10   1.0000      -0.655315       -17.8320
  11   1.0000      -0.591685       -16.1006
  12   1.0000      -0.591653       -16.0997
  13   1.0000      -0.568524       -15.4703
  14   1.0000      -0.568468       -15.4688
  15   1.0000      -0.549974       -14.9656
  16   0.0000       0.055622         1.5135
  17   0.0000       0.076109         2.0710
  18   0.0000       0.101815         2.7705
  19   0.0000       0.101819         2.7706
  20   0.0000       0.129243         3.5169

MULLIKEN ATOMIC CHARGES AND SPIN POPULATIONS
--------------------------------------------
   0 C :    0.530508    0.908526
   1 F :   -0.176737    0.030676
   2 F :   -0.176886    0.030399
   3 F :   -0.176885    0.030399
Sum of atomic charges         :   -0.0000000

LOEWDIN ATOMIC CHARGES AND SPIN POPULATIONS
-------------------------------------------
   0 C :   -0.460015    0.623634
   1 F :    0.153621    0.125634
   2 F :    0.153197    0.125366
   3 F :    0.153197    0.125366

  Mayer bond orders larger than 0.100000
B(  0-C ,  1-F ) :   1.0427 B(  0-C ,  2-F ) :   1.0424 B(  0-C ,  3-F ) :   1.0424

Dispersion correction           -0.000115117
FINAL SINGLE POINT ENERGY      -337.591228033001

DIPOLE MOMENT
-------------
                                X             Y             Z
Electronic contribution:      0.00055       0.00000       0.00001
Nuclear contribution   :      0.00008       0.00000      -0.00000
                        -----------------------------------------
Total Dipole Moment    :      0.00063       0.00000       0.00001
                        -----------------------------------------
Magnitude (a.u.)       :      0.00063
Magnitude (Debye)      :      0.00159

Dispersion correction in the Hessian             ... done   (      0.1 sec)

VIBRATIONAL FREQUENCIES
-----------------------

Scaling factor for frequencies =  1.000000000  (already applied!)

   0:         0.00 cm**-1
   1:         0.00 cm**-1
   2:         0.00 cm**-1
   3:         0.00 cm**-1
   4:         0.00 cm**-1
   5:         0.00 cm**-1
   6:     -1158.55 cm**-1 ***imaginary mode***
   7:       472.55 cm**-1
   8:       473.05 cm**-1
   9:       906.05 cm**-1
  10:      1447.49 cm**-1
  11:      1448.73 cm**-1

IR SPECTRUM
-----------

 Mode   freq       eps      Int      T**2         TX        TY        TZ
       cm**-1   L/(mol*cm) km/mol    a.u.
----------------------------------------------------------------------------
  7:    472.55   0.001445    7.30  0.000954  ( 0.000005  0.030891  0.000000)
  8:    473.05   0.001444    7.30  0.000953  (-0.030863  0.000005  0.000000)
  9:    906.05   0.000000    0.00  0.000000  (-0.000148 -0.000000  0.000000)
 10:   1447.49   0.061170  309.13  0.013188  ( 0.000001 -0.114838  0.000000)
 11:   1448.73   0.061125  308.90  0.013167  (-0.114746 -0.000001 -0.000000)

--------------------------
THERMOCHEMISTRY AT 298.15K
--------------------------

Temperature         ... 298.15 K
Pressure            ... 1.00 atm
Total Mass          ... 69.00 AMU

Throughout the following assumptions are being made:
  (1) The electronic state is orbitally nondegenerate
      but the spin degeneracy is treated
  (2) There are no thermally accessible electronically excited states
  (3) Hindered rotations indicated by low frequency modes are not
      treated as such but are treated as vibrations and this may
      cause some error
  (4) All equations used are the standard statistical mechanics
      equations for an ideal gas
  (5) All vibrations are strictly harmonic

freq.     472.55  E(vib)   ...       0.15
freq.     473.05  E(vib)   ...       0.15
freq.     906.05  E(vib)   ...       0.03
freq.    1447.49  E(vib)   ...       0.00
freq.    1448.73  E(vib)   ...       0.00

------------
INNER ENERGY
------------

The inner energy is: U= E(el) + E(ZPE) + E(vib) + E(rot) + E(trans)
    E(el)   - is the total energy from the electronic structure calculation
              = E(kin-el) + E(nuc-el) + E(el-el) + E(nuc-nuc)
    E(ZPE)  - the the zero temperature vibrational energy from the frequency calculation
    E(vib)  - the the finite temperature correction to E(ZPE) due to population
              of excited vibrational states
    E(rot)  - is the rotational thermal energy
    E(trans)- is the translational thermal energy

Summary of contributions to the inner energy U:
Electronic energy                ...   -337.59122803 Eh
Zero point energy                ...      0.01081644 Eh       6.79 kcal/mol
Thermal vibrational correction   ...      0.00055504 Eh       0.35 kcal/mol
Thermal rotational correction    ...      0.00141627 Eh       0.89 kcal/mol
Thermal translational correction ...      0.00141627 Eh       0.89 kcal/mol
-----------------------------------------------------------------------
Total thermal energy                   -337.57702401 Eh

Summary of corrections to the electronic energy:
(perhaps to be used in another calculation)
Total thermal correction                  0.00338758 Eh       2.13 kcal/mol
Non-thermal (ZPE) correction              0.01081644 Eh       6.79 kcal/mol
-----------------------------------------------------------------------
Total correction                          0.01420402 Eh       8.91 kcal/mol

--------
ENTHALPY
--------

The enthalpy is H = U + kB*T
                kB is Boltzmann's constant
Total free energy                 ...   -337.57702401 Eh
Thermal Enthalpy correction       ...      0.00094421 Eh       0.59 kcal/mol
-----------------------------------------------------------------------
Total Enthalpy                    ...   -337.57607980 Eh

Note: Rotational entropy computed according to Herzberg
Infrared and Raman Spectra, Chapter V,1, Van Nostrand Reinhold, 1945
Point Group:  C2v, Symmetry Number:   2
Rotational constants in cm-1:     0.345113     0.344946     0.172515

Vibrational entropy computed according to the QRRHO of S. Grimme
Chem.Eur.J. 2012 18 9955

-------
ENTROPY
-------

The entropy contributions are T*S = T*(S(el)+S(vib)+S(rot)+S(trans))
     S(el)   - electronic entropy
     S(vib)  - vibrational entropy
     S(rot)  - rotational entropy
     S(trans)- translational entropy
The entropies will be listed as multiplied by the temperature to get
units of energy

Electronic entropy                ...      0.00065446 Eh      0.41 kcal/mol
Vibrational entropy               ...      0.00077334 Eh      0.49 kcal/mol
Rotational entropy                ...      0.01069067 Eh      6.71 kcal/mol
Translational entropy             ...      0.01834582 Eh     11.51 kcal/mol
-----------------------------------------------------------------------
Final entropy term                ...      0.03046428 Eh     19.12 kcal/mol

In case the symmetry of your molecule has not been determined correctly
or in case you have a reason to use a different symmetry number we print
out the resulting rotational entropy values for sn=1,12 :
 --------------------------------------------------------
|  sn= 1 | S(rot)=       0.01134513 Eh      7.12 kcal/mol|
|  sn= 2 | S(rot)=       0.01069067 Eh      6.71 kcal/mol|
|  sn= 3 | S(rot)=       0.01030784 Eh      6.47 kcal/mol|
|  sn= 4 | S(rot)=       0.01003621 Eh      6.30 kcal/mol|
|  sn= 5 | S(rot)=       0.00982553 Eh      6.17 kcal/mol|
|  sn= 6 | S(rot)=       0.00965338 Eh      6.06 kcal/mol|
|  sn= 7 | S(rot)=       0.00950784 Eh      5.97 kcal/mol|
|  sn= 8 | S(rot)=       0.00938176 Eh      5.89 kcal/mol|
|  sn= 9 | S(rot)=       0.00927055 Eh      5.82 kcal/mol|
|  sn=10 | S(rot)=       0.00917107 Eh      5.75 kcal/mol|
|  sn=11 | S(rot)=       0.00908108 Eh      5.70 kcal/mol|
|  sn=12 | S(rot)=       0.00899893 Eh      5.65 kcal/mol|
 --------------------------------------------------------

-------------------
GIBBS FREE ENERGY
-------------------

The Gibbs free energy is G = H - T*S

Total enthalpy                    ...   -337.57607980 Eh
Total entropy correction          ...     -0.03046428 Eh    -19.12 kcal/mol
-----------------------------------------------------------------------
Final Gibbs free energy         ...   -337.60654408 Eh

For completeness - the Gibbs free energy minus the electronic energy
G-E(el)                           ...     -0.01531605 Eh     -9.61 kcal/mol

                             ****ORCA TERMINATED NORMALLY****
TOTAL RUN TIME: 0 days 0 hours 2 minutes 7 seconds 34 msec
