                         Program Version 5.0.4 -  RELEASE  -
|  1> ! UKS TightSCF wB97x-D3 def2-TZVPD xyzfile opt freq
|  2>
|  3> # CF3 radical 99.5 degrees fixed
|  4>
|  5> %maxcore 1000
|  6> %pal
|  7> nprocs 18
|  8> end
|  9>
| 10> %geom Constraints
| 11>         { A * 0 * C }
| 12>     end
| 13> end
| 14> * xyz 0 2
| 15> C 0.00 0.00 0.00
| 16> F 1.1589160011 0.0000000000 -0.6214005974
| 17> F -0.5794580005 1.0036506978 -0.6214005974
| 18> F -0.5794580005 -1.0036506978 -0.6214005974
| 19> **                         ****END OF INPUT****
 Total Charge           Charge          ....    0
 Multiplicity           Mult            ....    2
 Number of Electrons    NEL             ....   33
Dispersion correction           -0.000044915
FINAL SINGLE POINT ENERGY      -337.593311322596
Dispersion correction            ... done
Dispersion correction           -0.000053326
FINAL SINGLE POINT ENERGY      -337.596617328903
Dispersion correction            ... done
Dispersion correction           -0.000054715
FINAL SINGLE POINT ENERGY      -337.596676191154
Dispersion correction            ... done
Dispersion correction           -0.000054881
FINAL SINGLE POINT ENERGY      -337.596675977886
Dispersion correction            ... done
                    ***********************HURRAY********************

CARTESIAN COORDINATES (ANGSTROEM)
---------------------------------
  C     -0.000025    0.000000    0.011900
  F      1.188539    0.000000   -0.625376
  F     -0.594257    1.029256   -0.625363
  F     -0.594257   -1.029256   -0.625363

 Multiplicity           Mult            ....    2
 Number of Electrons    NEL             ....   33
 Basis Dimension        Dim             ....  157

ORBITAL ENERGIES
----------------
                 SPIN UP ORBITALS
  NO   OCC          E(Eh)            E(eV)
   0   1.0000     -24.839894      -675.9279
   1   1.0000     -24.839891      -675.9278
   2   1.0000     -24.839868      -675.9272
   3   1.0000     -10.564535      -287.4756
   4   1.0000      -1.466051       -39.8933
   5   1.0000      -1.356823       -36.9210
   6   1.0000      -1.356792       -36.9202
   7   1.0000      -0.838283       -22.8108
   8   1.0000      -0.714847       -19.4520
   9   1.0000      -0.714831       -19.4515
  10   1.0000      -0.696750       -18.9595
  11   1.0000      -0.600954       -16.3528
  12   1.0000      -0.600949       -16.3527
  13   1.0000      -0.542055       -14.7501
  14   1.0000      -0.542041       -14.7497
  15   1.0000      -0.524700       -14.2778
  16   1.0000      -0.448715       -12.2102
  17   0.0000       0.072321         1.9679
  18   0.0000       0.103488         2.8161
  19   0.0000       0.103489         2.8161
  20   0.0000       0.111875         3.0443
  21   0.0000       0.157423         4.2837

                 SPIN DOWN ORBITALS
  NO   OCC          E(Eh)            E(eV)
   0   1.0000     -24.837004      -675.8492
   1   1.0000     -24.836997      -675.8491
   2   1.0000     -24.836972      -675.8484
   3   1.0000     -10.551486      -287.1205
   4   1.0000      -1.457090       -39.6494
   5   1.0000      -1.348050       -36.6823
   6   1.0000      -1.348020       -36.6815
   7   1.0000      -0.818001       -22.2589
   8   1.0000      -0.703514       -19.1436
   9   1.0000      -0.703500       -19.1432
  10   1.0000      -0.656246       -17.8574
  11   1.0000      -0.588923       -16.0254
  12   1.0000      -0.588917       -16.0252
  13   1.0000      -0.534866       -14.5544
  14   1.0000      -0.534852       -14.5541
  15   1.0000      -0.521356       -14.1868
  16   0.0000      -0.098292        -2.6746
  17   0.0000       0.082208         2.2370
  18   0.0000       0.107517         2.9257
  19   0.0000       0.107517         2.9257
  20   0.0000       0.125070         3.4033

MULLIKEN ATOMIC CHARGES AND SPIN POPULATIONS
--------------------------------------------
   0 C :    0.538336    0.770765
   1 F :   -0.179419    0.076451
   2 F :   -0.179458    0.076392
   3 F :   -0.179458    0.076392
Sum of atomic charges         :   -0.0000000

LOEWDIN ATOMIC CHARGES AND SPIN POPULATIONS
-------------------------------------------
   0 C :   -0.240534    0.626019
   1 F :    0.080124    0.124678
   2 F :    0.080205    0.124652
   3 F :    0.080205    0.124652

  Mayer bond orders larger than 0.100000
B(  0-C ,  1-F ) :   1.0591 B(  0-C ,  2-F ) :   1.0589 B(  0-C ,  3-F ) :   1.0589

Dispersion correction           -0.000054884
FINAL SINGLE POINT ENERGY      -337.596676179467

DIPOLE MOMENT
-------------
                                X             Y             Z
Electronic contribution:     -0.00019       0.00000       0.12315
Nuclear contribution   :     -0.00002       0.00000       0.30832
                        -----------------------------------------
Total Dipole Moment    :     -0.00021       0.00000       0.43147
                        -----------------------------------------
Magnitude (a.u.)       :      0.43147
Magnitude (Debye)      :      1.09671

Dispersion correction in the Hessian             ... done   (      0.1 sec)

VIBRATIONAL FREQUENCIES
-----------------------

Scaling factor for frequencies =  1.000000000  (already applied!)

   0:         0.00 cm**-1
   1:         0.00 cm**-1
   2:         0.00 cm**-1
   3:         0.00 cm**-1
   4:         0.00 cm**-1
   5:         0.00 cm**-1
   6:       582.77 cm**-1
   7:       583.81 cm**-1
   8:       782.65 cm**-1
   9:      1057.97 cm**-1
  10:      1058.22 cm**-1
  11:      1091.10 cm**-1

IR SPECTRUM
-----------

 Mode   freq       eps      Int      T**2         TX        TY        TZ
       cm**-1   L/(mol*cm) km/mol    a.u.
----------------------------------------------------------------------------
  6:    582.77   0.000296    1.50  0.000159  (-0.012599 -0.000000 -0.000080)
  7:    583.81   0.000291    1.47  0.000156  ( 0.000000 -0.012473  0.000000)
  8:    782.65   0.002686   13.58  0.001071  ( 0.000097  0.000000  0.032728)
  9:   1057.97   0.060178  304.11  0.017750  (-0.133230 -0.000140  0.000424)
 10:   1058.22   0.060142  303.93  0.017736  ( 0.000140 -0.133175 -0.000001)
 11:   1091.10   0.009197   46.48  0.002630  (-0.001017  0.000000 -0.051276)

--------------------------
THERMOCHEMISTRY AT 298.15K
--------------------------

Temperature         ... 298.15 K
Pressure            ... 1.00 atm
Total Mass          ... 69.00 AMU

Throughout the following assumptions are being made:
  (1) The electronic state is orbitally nondegenerate
      but the spin degeneracy is treated
  (2) There are no thermally accessible electronically excited states
  (3) Hindered rotations indicated by low frequency modes are not
      treated as such but are treated as vibrations and this may
      cause some error
  (4) All equations used are the standard statistical mechanics
      equations for an ideal gas
  (5) All vibrations are strictly harmonic

freq.     582.77  E(vib)   ...       0.11
freq.     583.81  E(vib)   ...       0.11
freq.     782.65  E(vib)   ...       0.05
freq.    1057.97  E(vib)   ...       0.02
freq.    1058.22  E(vib)   ...       0.02
freq.    1091.10  E(vib)   ...       0.02

------------
INNER ENERGY
------------

The inner energy is: U= E(el) + E(ZPE) + E(vib) + E(rot) + E(trans)
    E(el)   - is the total energy from the electronic structure calculation
              = E(kin-el) + E(nuc-el) + E(el-el) + E(nuc-nuc)
    E(ZPE)  - the the zero temperature vibrational energy from the frequency calculation
    E(vib)  - the the finite temperature correction to E(ZPE) due to population
              of excited vibrational states
    E(rot)  - is the rotational thermal energy
    E(trans)- is the translational thermal energy

Summary of contributions to the inner energy U:
Electronic energy                ...   -337.59667618 Eh
Zero point energy                ...      0.01174740 Eh       7.37 kcal/mol
Thermal vibrational correction   ...      0.00050700 Eh       0.32 kcal/mol
Thermal rotational correction    ...      0.00141627 Eh       0.89 kcal/mol
Thermal translational correction ...      0.00141627 Eh       0.89 kcal/mol
-----------------------------------------------------------------------
Total thermal energy                   -337.58158923 Eh

Summary of corrections to the electronic energy:
(perhaps to be used in another calculation)
Total thermal correction                  0.00333955 Eh       2.10 kcal/mol
Non-thermal (ZPE) correction              0.01174740 Eh       7.37 kcal/mol
-----------------------------------------------------------------------
Total correction                          0.01508695 Eh       9.47 kcal/mol

--------
ENTHALPY
--------

The enthalpy is H = U + kB*T
                kB is Boltzmann's constant
Total free energy                 ...   -337.58158923 Eh
Thermal Enthalpy correction       ...      0.00094421 Eh       0.59 kcal/mol
-----------------------------------------------------------------------
Total Enthalpy                    ...   -337.58064502 Eh

Note: Rotational entropy computed according to Herzberg
Infrared and Raman Spectra, Chapter V,1, Van Nostrand Reinhold, 1945
Point Group:  C3v, Symmetry Number:   3
Rotational constants in cm-1:     0.380701     0.380673     0.209394

Vibrational entropy computed according to the QRRHO of S. Grimme
Chem.Eur.J. 2012 18 9955

-------
ENTROPY
-------

The entropy contributions are T*S = T*(S(el)+S(vib)+S(rot)+S(trans))
     S(el)   - electronic entropy
     S(vib)  - vibrational entropy
     S(rot)  - rotational entropy
     S(trans)- translational entropy
The entropies will be listed as multiplied by the temperature to get
units of energy

Electronic entropy                ...      0.00065446 Eh      0.41 kcal/mol
Vibrational entropy               ...      0.00066256 Eh      0.42 kcal/mol
Rotational entropy                ...      0.01012352 Eh      6.35 kcal/mol
Translational entropy             ...      0.01834582 Eh     11.51 kcal/mol
-----------------------------------------------------------------------
Final entropy term                ...      0.02978635 Eh     18.69 kcal/mol

In case the symmetry of your molecule has not been determined correctly
or in case you have a reason to use a different symmetry number we print
out the resulting rotational entropy values for sn=1,12 :
 --------------------------------------------------------
|  sn= 1 | S(rot)=       0.01116081 Eh      7.00 kcal/mol|
|  sn= 2 | S(rot)=       0.01050635 Eh      6.59 kcal/mol|
|  sn= 3 | S(rot)=       0.01012352 Eh      6.35 kcal/mol|
|  sn= 4 | S(rot)=       0.00985190 Eh      6.18 kcal/mol|
|  sn= 5 | S(rot)=       0.00964121 Eh      6.05 kcal/mol|
|  sn= 6 | S(rot)=       0.00946906 Eh      5.94 kcal/mol|
|  sn= 7 | S(rot)=       0.00932352 Eh      5.85 kcal/mol|
|  sn= 8 | S(rot)=       0.00919744 Eh      5.77 kcal/mol|
|  sn= 9 | S(rot)=       0.00908623 Eh      5.70 kcal/mol|
|  sn=10 | S(rot)=       0.00898675 Eh      5.64 kcal/mol|
|  sn=11 | S(rot)=       0.00889676 Eh      5.58 kcal/mol|
|  sn=12 | S(rot)=       0.00881461 Eh      5.53 kcal/mol|
 --------------------------------------------------------

-------------------
GIBBS FREE ENERGY
-------------------

The Gibbs free energy is G = H - T*S

Total enthalpy                    ...   -337.58064502 Eh
Total entropy correction          ...     -0.02978635 Eh    -18.69 kcal/mol
-----------------------------------------------------------------------
Final Gibbs free energy         ...   -337.61043137 Eh

For completeness - the Gibbs free energy minus the electronic energy
G-E(el)                           ...     -0.01375519 Eh     -8.63 kcal/mol

                             ****ORCA TERMINATED NORMALLY****
TOTAL RUN TIME: 0 days 0 hours 1 minutes 55 seconds 376 msec
