                         Program Version 5.0.4 -  RELEASE  -
|  1> # CF3 radical
|  2>
|  3> ! UKS TightSCF wB97x-D3 def2-TZVPD opt freq
|  4>
|  5> %maxcore 1000
|  6> %pal
|  7> nprocs 18
|  8> end
|  9>
| 10> * xyz 0 2
| 11>   C   -0.00578552515387      0.00365205368861      0.32216033667858
| 12>   F   0.10566249170329     -1.24832598008937     -0.06471214757515
| 13>   F   -1.13848234839565      0.53246615426204     -0.08636300466232
| 14>   F   1.02625038184624      0.71957277213872     -0.06731218444111
| 15> *                            ****END OF INPUT****
 Total Charge           Charge          ....    0
 Multiplicity           Mult            ....    2
 Number of Electrons    NEL             ....   33
Dispersion correction           -0.000083031
FINAL SINGLE POINT ENERGY      -337.632745323418
Dispersion correction            ... done
                    ***********************HURRAY********************

CARTESIAN COORDINATES (ANGSTROEM)
---------------------------------
  C     -0.005784    0.003655    0.322182
  F      0.105661   -1.248309   -0.064720
  F     -1.138468    0.532458   -0.086370
  F      1.026237    0.719562   -0.067319

 Multiplicity           Mult            ....    2
 Number of Electrons    NEL             ....   33
 Basis Dimension        Dim             ....  157

ORBITAL ENERGIES
----------------
                 SPIN UP ORBITALS
  NO   OCC          E(Eh)            E(eV)
   0   1.0000     -24.853515      -676.2985
   1   1.0000     -24.853472      -676.2973
   2   1.0000     -24.853439      -676.2965
   3   1.0000     -10.540161      -286.8124
   4   1.0000      -1.470702       -40.0198
   5   1.0000      -1.383710       -37.6527
   6   1.0000      -1.383626       -37.6504
   7   1.0000      -0.838971       -22.8296
   8   1.0000      -0.733865       -19.9695
   9   1.0000      -0.733825       -19.9684
  10   1.0000      -0.701380       -19.0855
  11   1.0000      -0.607370       -16.5274
  12   1.0000      -0.607335       -16.5264
  13   1.0000      -0.573737       -15.6122
  14   1.0000      -0.573684       -15.6107
  15   1.0000      -0.547645       -14.9022
  16   1.0000      -0.372755       -10.1432
  17   0.0000       0.069857         1.9009
  18   0.0000       0.103815         2.8249
  19   0.0000       0.103818         2.8250
  20   0.0000       0.114517         3.1162
  21   0.0000       0.158142         4.3033

                 SPIN DOWN ORBITALS
  NO   OCC          E(Eh)            E(eV)
   0   1.0000     -24.850512      -676.2168
   1   1.0000     -24.850469      -676.2156
   2   1.0000     -24.850436      -676.2147
   3   1.0000     -10.527332      -286.4633
   4   1.0000      -1.460711       -39.7480
   5   1.0000      -1.375153       -37.4198
   6   1.0000      -1.375067       -37.4175
   7   1.0000      -0.820733       -22.3333
   8   1.0000      -0.723649       -19.6915
   9   1.0000      -0.723604       -19.6903
  10   1.0000      -0.663319       -18.0498
  11   1.0000      -0.596519       -16.2321
  12   1.0000      -0.596488       -16.2313
  13   1.0000      -0.564287       -15.3550
  14   1.0000      -0.564230       -15.3535
  15   1.0000      -0.544379       -14.8133
  16   0.0000      -0.020506        -0.5580
  17   0.0000       0.081801         2.2259
  18   0.0000       0.107148         2.9157
  19   0.0000       0.107153         2.9158
  20   0.0000       0.130934         3.5629

MULLIKEN ATOMIC CHARGES AND SPIN POPULATIONS
--------------------------------------------
   0 C :    0.532291    0.814796
   1 F :   -0.177496    0.061728
   2 F :   -0.177427    0.061715
   3 F :   -0.177368    0.061762
Sum of atomic charges         :   -0.0000000

LOEWDIN ATOMIC CHARGES AND SPIN POPULATIONS
-------------------------------------------
   0 C :   -0.410492    0.614453
   1 F :    0.136773    0.128498
   2 F :    0.136810    0.128520
   3 F :    0.136909    0.128530

  Mayer bond orders larger than 0.100000
B(  0-C ,  1-F ) :   1.0510 B(  0-C ,  2-F ) :   1.0512 B(  0-C ,  3-F ) :   1.0512

Dispersion correction           -0.000083022
FINAL SINGLE POINT ENERGY      -337.632745163027

DIPOLE MOMENT
-------------
                                X             Y             Z
Electronic contribution:      0.00096      -0.00024      -0.08557
Nuclear contribution   :     -0.00174       0.00117       0.19110
                        -----------------------------------------
Total Dipole Moment    :     -0.00078       0.00093       0.10553
                        -----------------------------------------
Magnitude (a.u.)       :      0.10554
Magnitude (Debye)      :      0.26826

Dispersion correction in the Hessian             ... done   (      0.1 sec)

VIBRATIONAL FREQUENCIES
-----------------------

Scaling factor for frequencies =  1.000000000  (already applied!)

   0:         0.00 cm**-1
   1:         0.00 cm**-1
   2:         0.00 cm**-1
   3:         0.00 cm**-1
   4:         0.00 cm**-1
   5:         0.00 cm**-1
   6:       512.02 cm**-1
   7:       512.41 cm**-1
   8:       707.71 cm**-1
   9:      1097.61 cm**-1
  10:      1270.07 cm**-1
  11:      1270.42 cm**-1

IR SPECTRUM
-----------

 Mode   freq       eps      Int      T**2         TX        TY        TZ
       cm**-1   L/(mol*cm) km/mol    a.u.
----------------------------------------------------------------------------
  6:    512.02   0.000298    1.50  0.000181  (-0.003847 -0.012905  0.000041)
  7:    512.41   0.000297    1.50  0.000181  ( 0.012889 -0.003799  0.000167)
  8:    707.71   0.002373   11.99  0.001046  ( 0.000368 -0.000196 -0.032346)
  9:   1097.61   0.007529   38.05  0.002141  ( 0.000393 -0.000266 -0.046264)
 10:   1270.07   0.072059  364.15  0.017705  (-0.060434  0.118538 -0.001286)
 11:   1270.42   0.072065  364.19  0.017702  ( 0.118526  0.060440  0.000727)

--------------------------
THERMOCHEMISTRY AT 298.15K
--------------------------

Temperature         ... 298.15 K
Pressure            ... 1.00 atm
Total Mass          ... 69.00 AMU

Throughout the following assumptions are being made:
  (1) The electronic state is orbitally nondegenerate
      but the spin degeneracy is treated
  (2) There are no thermally accessible electronically excited states
  (3) Hindered rotations indicated by low frequency modes are not
      treated as such but are treated as vibrations and this may
      cause some error
  (4) All equations used are the standard statistical mechanics
      equations for an ideal gas
  (5) All vibrations are strictly harmonic

freq.     512.02  E(vib)   ...       0.14
freq.     512.41  E(vib)   ...       0.13
freq.     707.71  E(vib)   ...       0.07
freq.    1097.61  E(vib)   ...       0.02
freq.    1270.07  E(vib)   ...       0.01
freq.    1270.42  E(vib)   ...       0.01

------------
INNER ENERGY
------------

The inner energy is: U= E(el) + E(ZPE) + E(vib) + E(rot) + E(trans)
    E(el)   - is the total energy from the electronic structure calculation
              = E(kin-el) + E(nuc-el) + E(el-el) + E(nuc-nuc)
    E(ZPE)  - the the zero temperature vibrational energy from the frequency calculation
    E(vib)  - the the finite temperature correction to E(ZPE) due to population
              of excited vibrational states
    E(rot)  - is the rotational thermal energy
    E(trans)- is the translational thermal energy

Summary of contributions to the inner energy U:
Electronic energy                ...   -337.63274516 Eh
Zero point energy                ...      0.01223432 Eh       7.68 kcal/mol
Thermal vibrational correction   ...      0.00059052 Eh       0.37 kcal/mol
Thermal rotational correction    ...      0.00141627 Eh       0.89 kcal/mol
Thermal translational correction ...      0.00141627 Eh       0.89 kcal/mol
-----------------------------------------------------------------------
Total thermal energy                   -337.61708778 Eh

Summary of corrections to the electronic energy:
(perhaps to be used in another calculation)
Total thermal correction                  0.00342306 Eh       2.15 kcal/mol
Non-thermal (ZPE) correction              0.01223432 Eh       7.68 kcal/mol
-----------------------------------------------------------------------
Total correction                          0.01565738 Eh       9.83 kcal/mol

--------
ENTHALPY
--------

The enthalpy is H = U + kB*T
                kB is Boltzmann's constant
Total free energy                 ...   -337.61708778 Eh
Thermal Enthalpy correction       ...      0.00094421 Eh       0.59 kcal/mol
-----------------------------------------------------------------------
Total Enthalpy                    ...   -337.61614357 Eh

Note: Only C1 symmetry has been detected, increase convergence thresholds
      if your molecule has a higher symmetry. Symmetry factor of 1.0 is
      used for the rotational entropy correction.

Note: Rotational entropy computed according to Herzberg
Infrared and Raman Spectra, Chapter V,1, Van Nostrand Reinhold, 1945
Point Group:  C1, Symmetry Number:   1
Rotational constants in cm-1:     0.363507     0.363342     0.187985

Vibrational entropy computed according to the QRRHO of S. Grimme
Chem.Eur.J. 2012 18 9955

-------
ENTROPY
-------

The entropy contributions are T*S = T*(S(el)+S(vib)+S(rot)+S(trans))
     S(el)   - electronic entropy
     S(vib)  - vibrational entropy
     S(rot)  - rotational entropy
     S(trans)- translational entropy
The entropies will be listed as multiplied by the temperature to get
units of energy

Electronic entropy                ...      0.00065446 Eh      0.41 kcal/mol
Vibrational entropy               ...      0.00079848 Eh      0.50 kcal/mol
Rotational entropy                ...      0.01125554 Eh      7.06 kcal/mol
Translational entropy             ...      0.01834582 Eh     11.51 kcal/mol
-----------------------------------------------------------------------
Final entropy term                ...      0.03105430 Eh     19.49 kcal/mol

In case the symmetry of your molecule has not been determined correctly
or in case you have a reason to use a different symmetry number we print
out the resulting rotational entropy values for sn=1,12 :
 --------------------------------------------------------
|  sn= 1 | S(rot)=       0.01125554 Eh      7.06 kcal/mol|
|  sn= 2 | S(rot)=       0.01060109 Eh      6.65 kcal/mol|
|  sn= 3 | S(rot)=       0.01021825 Eh      6.41 kcal/mol|
|  sn= 4 | S(rot)=       0.00994663 Eh      6.24 kcal/mol|
|  sn= 5 | S(rot)=       0.00973594 Eh      6.11 kcal/mol|
|  sn= 6 | S(rot)=       0.00956380 Eh      6.00 kcal/mol|
|  sn= 7 | S(rot)=       0.00941825 Eh      5.91 kcal/mol|
|  sn= 8 | S(rot)=       0.00929217 Eh      5.83 kcal/mol|
|  sn= 9 | S(rot)=       0.00918097 Eh      5.76 kcal/mol|
|  sn=10 | S(rot)=       0.00908149 Eh      5.70 kcal/mol|
|  sn=11 | S(rot)=       0.00899150 Eh      5.64 kcal/mol|
|  sn=12 | S(rot)=       0.00890934 Eh      5.59 kcal/mol|
 --------------------------------------------------------

-------------------
GIBBS FREE ENERGY
-------------------

The Gibbs free energy is G = H - T*S

Total enthalpy                    ...   -337.61614357 Eh
Total entropy correction          ...     -0.03105430 Eh    -19.49 kcal/mol
-----------------------------------------------------------------------
Final Gibbs free energy         ...   -337.64719787 Eh

For completeness - the Gibbs free energy minus the electronic energy
G-E(el)                           ...     -0.01445271 Eh     -9.07 kcal/mol

                             ****ORCA TERMINATED NORMALLY****
TOTAL RUN TIME: 0 days 0 hours 1 minutes 1 seconds 462 msec
