                         Program Version 5.0.4 -  RELEASE  -
|  1> ! UKS TightSCF wB97x-D3 def2-TZVPD xyzfile opt freq
|  2>
|  3> # CF3 radical 118.5 degrees fixed
|  4>
|  5> %maxcore 1000
|  6> %pal
|  7> nprocs 18
|  8> end
|  9>
| 10> %geom Constraints
| 11>         { A * 0 * C }
| 12>     end
| 13> end
| 14> * xyz 0 2
| 15> C 0.00 0.00 0.00
| 16> F 1.3049495156 0.0000000000 -0.1622706439
| 17> F -0.6524747578 1.1301194311 -0.1622706439
| 18> F -0.6524747578 -1.1301194311 -0.1622706439
| 19> **                         ****END OF INPUT****
 Total Charge           Charge          ....    0
 Multiplicity           Mult            ....    2
 Number of Electrons    NEL             ....   33
Dispersion correction           -0.000112244
FINAL SINGLE POINT ENERGY      -337.608786505698
Dispersion correction            ... done
Dispersion correction           -0.000108822
FINAL SINGLE POINT ENERGY      -337.608905062719
Dispersion correction            ... done
Dispersion correction           -0.000107992
FINAL SINGLE POINT ENERGY      -337.608908124692
Dispersion correction            ... done
                    ***********************HURRAY********************

CARTESIAN COORDINATES (ANGSTROEM)
---------------------------------
  C     -0.000242   -0.000000   -0.000612
  F      1.298780   -0.000000   -0.162087
  F     -0.649269    1.124161   -0.162057
  F     -0.649269   -1.124161   -0.162057

 Multiplicity           Mult            ....    2
 Number of Electrons    NEL             ....   33
 Basis Dimension        Dim             ....  157

ORBITAL ENERGIES
----------------
                 SPIN UP ORBITALS
  NO   OCC          E(Eh)            E(eV)
   0   1.0000     -24.857707      -676.4126
   1   1.0000     -24.857697      -676.4123
   2   1.0000     -24.857457      -676.4058
   3   1.0000     -10.515533      -286.1422
   4   1.0000      -1.461977       -39.7824
   5   1.0000      -1.389823       -37.8190
   6   1.0000      -1.389486       -37.8098
   7   1.0000      -0.834420       -22.7057
   8   1.0000      -0.735018       -20.0008
   9   1.0000      -0.734923       -19.9983
  10   1.0000      -0.698628       -19.0106
  11   1.0000      -0.602748       -16.4016
  12   1.0000      -0.602742       -16.4014
  13   1.0000      -0.588564       -16.0156
  14   1.0000      -0.588457       -16.0127
  15   1.0000      -0.555191       -15.1075
  16   1.0000      -0.300581        -8.1792
  17   0.0000       0.057523         1.5653
  18   0.0000       0.100113         2.7242
  19   0.0000       0.100125         2.7245
  20   0.0000       0.119353         3.2478
  21   0.0000       0.153964         4.1896

                 SPIN DOWN ORBITALS
  NO   OCC          E(Eh)            E(eV)
   0   1.0000     -24.854853      -676.3349
   1   1.0000     -24.854839      -676.3346
   2   1.0000     -24.854607      -676.3282
   3   1.0000     -10.502461      -285.7865
   4   1.0000      -1.450997       -39.4836
   5   1.0000      -1.382259       -37.6132
   6   1.0000      -1.381936       -37.6044
   7   1.0000      -0.813996       -22.1500
   8   1.0000      -0.726840       -19.7783
   9   1.0000      -0.726758       -19.7761
  10   1.0000      -0.661035       -17.9877
  11   1.0000      -0.595475       -16.2037
  12   1.0000      -0.595386       -16.2013
  13   1.0000      -0.572790       -15.5864
  14   1.0000      -0.572623       -15.5819
  15   1.0000      -0.552215       -15.0265
  16   0.0000       0.044241         1.2039
  17   0.0000       0.076279         2.0757
  18   0.0000       0.104030         2.8308
  19   0.0000       0.104043         2.8312
  20   0.0000       0.133068         3.6210

MULLIKEN ATOMIC CHARGES AND SPIN POPULATIONS
--------------------------------------------
   0 C :    0.508025    0.875922
   1 F :   -0.169394    0.041237
   2 F :   -0.169315    0.041420
   3 F :   -0.169316    0.041421
Sum of atomic charges         :   -0.0000000

LOEWDIN ATOMIC CHARGES AND SPIN POPULATIONS
-------------------------------------------
   0 C :   -0.462541    0.613256
   1 F :    0.153538    0.128735
   2 F :    0.154502    0.129005
   3 F :    0.154502    0.129005

  Mayer bond orders larger than 0.100000
B(  0-C ,  1-F ) :   1.0472 B(  0-C ,  2-F ) :   1.0476 B(  0-C ,  3-F ) :   1.0476

Dispersion correction           -0.000108010
FINAL SINGLE POINT ENERGY      -337.608908100839

DIPOLE MOMENT
-------------
                                X             Y             Z
Electronic contribution:     -0.00155      -0.00000      -0.18825
Nuclear contribution   :     -0.00016      -0.00000       0.07811
                        -----------------------------------------
Total Dipole Moment    :     -0.00171      -0.00000      -0.11013
                        -----------------------------------------
Magnitude (a.u.)       :      0.11015
Magnitude (Debye)      :      0.27997

Dispersion correction in the Hessian             ... done   (      0.1 sec)

VIBRATIONAL FREQUENCIES
-----------------------

Scaling factor for frequencies =  1.000000000  (already applied!)

   0:         0.00 cm**-1
   1:         0.00 cm**-1
   2:         0.00 cm**-1
   3:         0.00 cm**-1
   4:         0.00 cm**-1
   5:         0.00 cm**-1
   6:       113.30 cm**-1
   7:       470.19 cm**-1
   8:       470.41 cm**-1
   9:       931.17 cm**-1
  10:      1387.64 cm**-1
  11:      1390.65 cm**-1

IR SPECTRUM
-----------

 Mode   freq       eps      Int      T**2         TX        TY        TZ
       cm**-1   L/(mol*cm) km/mol    a.u.
----------------------------------------------------------------------------
  6:    113.30   0.000386    1.95  0.001062  ( 0.000183 -0.000000 -0.032590)
  7:    470.19   0.000653    3.30  0.000433  (-0.020819  0.000005  0.000003)
  8:    470.41   0.000649    3.28  0.000430  (-0.000006 -0.020747  0.000000)
  9:    931.17   0.000362    1.83  0.000121  (-0.000511 -0.000000  0.011003)
 10:   1387.64   0.069810  352.79  0.015699  ( 0.125297 -0.000003  0.000094)
 11:   1390.65   0.069909  353.29  0.015688  (-0.000003 -0.125251 -0.000000)

--------------------------
THERMOCHEMISTRY AT 298.15K
--------------------------

Temperature         ... 298.15 K
Pressure            ... 1.00 atm
Total Mass          ... 69.00 AMU

Throughout the following assumptions are being made:
  (1) The electronic state is orbitally nondegenerate
      but the spin degeneracy is treated
  (2) There are no thermally accessible electronically excited states
  (3) Hindered rotations indicated by low frequency modes are not
      treated as such but are treated as vibrations and this may
      cause some error
  (4) All equations used are the standard statistical mechanics
      equations for an ideal gas
  (5) All vibrations are strictly harmonic

freq.     113.30  E(vib)   ...       0.45
freq.     470.19  E(vib)   ...       0.16
freq.     470.41  E(vib)   ...       0.15
freq.     931.17  E(vib)   ...       0.03
freq.    1387.64  E(vib)   ...       0.00
freq.    1390.65  E(vib)   ...       0.00

------------
INNER ENERGY
------------

The inner energy is: U= E(el) + E(ZPE) + E(vib) + E(rot) + E(trans)
    E(el)   - is the total energy from the electronic structure calculation
              = E(kin-el) + E(nuc-el) + E(el-el) + E(nuc-nuc)
    E(ZPE)  - the the zero temperature vibrational energy from the frequency calculation
    E(vib)  - the the finite temperature correction to E(ZPE) due to population
              of excited vibrational states
    E(rot)  - is the rotational thermal energy
    E(trans)- is the translational thermal energy

Summary of contributions to the inner energy U:
Electronic energy                ...   -337.60890810 Eh
Zero point energy                ...      0.01085173 Eh       6.81 kcal/mol
Thermal vibrational correction   ...      0.00126709 Eh       0.80 kcal/mol
Thermal rotational correction    ...      0.00141627 Eh       0.89 kcal/mol
Thermal translational correction ...      0.00141627 Eh       0.89 kcal/mol
-----------------------------------------------------------------------
Total thermal energy                   -337.59395674 Eh

Summary of corrections to the electronic energy:
(perhaps to be used in another calculation)
Total thermal correction                  0.00409964 Eh       2.57 kcal/mol
Non-thermal (ZPE) correction              0.01085173 Eh       6.81 kcal/mol
-----------------------------------------------------------------------
Total correction                          0.01495136 Eh       9.38 kcal/mol

--------
ENTHALPY
--------

The enthalpy is H = U + kB*T
                kB is Boltzmann's constant
Total free energy                 ...   -337.59395674 Eh
Thermal Enthalpy correction       ...      0.00094421 Eh       0.59 kcal/mol
-----------------------------------------------------------------------
Total Enthalpy                    ...   -337.59301253 Eh

Note: Rotational entropy computed according to Herzberg
Infrared and Raman Spectra, Chapter V,1, Van Nostrand Reinhold, 1945
Point Group:  Cs, Symmetry Number:   1
Rotational constants in cm-1:     0.349196     0.348859     0.175453

Vibrational entropy computed according to the QRRHO of S. Grimme
Chem.Eur.J. 2012 18 9955

-------
ENTROPY
-------

The entropy contributions are T*S = T*(S(el)+S(vib)+S(rot)+S(trans))
     S(el)   - electronic entropy
     S(vib)  - vibrational entropy
     S(rot)  - rotational entropy
     S(trans)- translational entropy
The entropies will be listed as multiplied by the temperature to get
units of energy

Electronic entropy                ...      0.00065446 Eh      0.41 kcal/mol
Vibrational entropy               ...      0.00221743 Eh      1.39 kcal/mol
Rotational entropy                ...      0.01132628 Eh      7.11 kcal/mol
Translational entropy             ...      0.01834582 Eh     11.51 kcal/mol
-----------------------------------------------------------------------
Final entropy term                ...      0.03254398 Eh     20.42 kcal/mol

In case the symmetry of your molecule has not been determined correctly
or in case you have a reason to use a different symmetry number we print
out the resulting rotational entropy values for sn=1,12 :
 --------------------------------------------------------
|  sn= 1 | S(rot)=       0.01132628 Eh      7.11 kcal/mol|
|  sn= 2 | S(rot)=       0.01067182 Eh      6.70 kcal/mol|
|  sn= 3 | S(rot)=       0.01028899 Eh      6.46 kcal/mol|
|  sn= 4 | S(rot)=       0.01001736 Eh      6.29 kcal/mol|
|  sn= 5 | S(rot)=       0.00980668 Eh      6.15 kcal/mol|
|  sn= 6 | S(rot)=       0.00963453 Eh      6.05 kcal/mol|
|  sn= 7 | S(rot)=       0.00948899 Eh      5.95 kcal/mol|
|  sn= 8 | S(rot)=       0.00936291 Eh      5.88 kcal/mol|
|  sn= 9 | S(rot)=       0.00925170 Eh      5.81 kcal/mol|
|  sn=10 | S(rot)=       0.00915222 Eh      5.74 kcal/mol|
|  sn=11 | S(rot)=       0.00906223 Eh      5.69 kcal/mol|
|  sn=12 | S(rot)=       0.00898008 Eh      5.64 kcal/mol|
 --------------------------------------------------------

-------------------
GIBBS FREE ENERGY
-------------------

The Gibbs free energy is G = H - T*S

Total enthalpy                    ...   -337.59301253 Eh
Total entropy correction          ...     -0.03254398 Eh    -20.42 kcal/mol
-----------------------------------------------------------------------
Final Gibbs free energy         ...   -337.62555651 Eh

For completeness - the Gibbs free energy minus the electronic energy
G-E(el)                           ...     -0.01664841 Eh    -10.45 kcal/mol

                             ****ORCA TERMINATED NORMALLY****
TOTAL RUN TIME: 0 days 0 hours 1 minutes 39 seconds 273 msec
