                         Program Version 5.0.4 -  RELEASE  -
|  1> ! UKS TightSCF wB97x-D3 def2-TZVPD xyzfile opt freq
|  2>
|  3> # CF3 radical 96.0 degrees fixed
|  4>
|  5> %maxcore 1000
|  6> %pal
|  7> nprocs 18
|  8> end
|  9>
| 10> %geom Constraints
| 11>         { A * 0 * C }
| 12>     end
| 13> end
| 14> * xyz 0 2
| 15> C 0.00 0.00 0.00
| 16> F 1.1284142950 0.0000000000 -0.6752082484
| 17> F -0.5642071475 0.9772354455 -0.6752082484
| 18> F -0.5642071475 -0.9772354455 -0.6752082484
| 19> **                         ****END OF INPUT****
 Total Charge           Charge          ....    0
 Multiplicity           Mult            ....    2
 Number of Electrons    NEL             ....   33
Dispersion correction           -0.000036509
FINAL SINGLE POINT ENERGY      -337.567054493166
Dispersion correction            ... done
Dispersion correction           -0.000047008
FINAL SINGLE POINT ENERGY      -337.574228287390
Dispersion correction            ... done
Dispersion correction           -0.000048625
FINAL SINGLE POINT ENERGY      -337.574344272085
Dispersion correction            ... done
Dispersion correction           -0.000048910
FINAL SINGLE POINT ENERGY      -337.574345470257
Dispersion correction            ... done
                    ***********************HURRAY********************

CARTESIAN COORDINATES (ANGSTROEM)
---------------------------------
  C      0.000074   -0.000000    0.018935
  F      1.170514   -0.000000   -0.681490
  F     -0.585294    1.013834   -0.681535
  F     -0.585294   -1.013834   -0.681535

 Multiplicity           Mult            ....    2
 Number of Electrons    NEL             ....   33
 Basis Dimension        Dim             ....  157

ORBITAL ENERGIES
----------------
                 SPIN UP ORBITALS
  NO   OCC          E(Eh)            E(eV)
   0   1.0000     -24.835434      -675.8065
   1   1.0000     -24.835353      -675.8043
   2   1.0000     -24.835352      -675.8043
   3   1.0000     -10.572412      -287.6900
   4   1.0000      -1.461801       -39.7776
   5   1.0000      -1.346954       -36.6525
   6   1.0000      -1.346887       -36.6507
   7   1.0000      -0.837880       -22.7999
   8   1.0000      -0.706990       -19.2382
   9   1.0000      -0.706983       -19.2380
  10   1.0000      -0.694254       -18.8916
  11   1.0000      -0.597806       -16.2671
  12   1.0000      -0.597799       -16.2669
  13   1.0000      -0.531450       -14.4615
  14   1.0000      -0.531425       -14.4608
  15   1.0000      -0.516799       -14.0628
  16   1.0000      -0.466882       -12.7045
  17   0.0000       0.072090         1.9617
  18   0.0000       0.099971         2.7204
  19   0.0000       0.099980         2.7206
  20   0.0000       0.111518         3.0345
  21   0.0000       0.149769         4.0754

                 SPIN DOWN ORBITALS
  NO   OCC          E(Eh)            E(eV)
   0   1.0000     -24.832561      -675.7283
   1   1.0000     -24.832484      -675.7262
   2   1.0000     -24.832476      -675.7260
   3   1.0000     -10.559331      -287.3340
   4   1.0000      -1.453001       -39.5382
   5   1.0000      -1.338112       -36.4119
   6   1.0000      -1.338042       -36.4100
   7   1.0000      -0.816305       -22.2128
   8   1.0000      -0.695430       -18.9236
   9   1.0000      -0.695423       -18.9234
  10   1.0000      -0.653289       -17.7769
  11   1.0000      -0.585426       -15.9302
  12   1.0000      -0.585423       -15.9302
  13   1.0000      -0.524603       -14.2752
  14   1.0000      -0.524578       -14.2745
  15   1.0000      -0.513409       -13.9706
  16   0.0000      -0.118167        -3.2155
  17   0.0000       0.081997         2.2313
  18   0.0000       0.106131         2.8880
  19   0.0000       0.106131         2.8880
  20   0.0000       0.123489         3.3603

MULLIKEN ATOMIC CHARGES AND SPIN POPULATIONS
--------------------------------------------
   0 C :    0.531040    0.759059
   1 F :   -0.176760    0.080364
   2 F :   -0.177139    0.080289
   3 F :   -0.177141    0.080288
Sum of atomic charges         :   -0.0000000

LOEWDIN ATOMIC CHARGES AND SPIN POPULATIONS
-------------------------------------------
   0 C :   -0.173239    0.627800
   1 F :    0.057888    0.124084
   2 F :    0.057675    0.124058
   3 F :    0.057676    0.124058

  Mayer bond orders larger than 0.100000
B(  0-C ,  1-F ) :   1.0602 B(  0-C ,  2-F ) :   1.0597 B(  0-C ,  3-F ) :   1.0597

Dispersion correction           -0.000048916
FINAL SINGLE POINT ENERGY      -337.574345437116

DIPOLE MOMENT
-------------
                                X             Y             Z
Electronic contribution:      0.00042      -0.00000       0.18147
Nuclear contribution   :      0.00005      -0.00000       0.33889
                        -----------------------------------------
Total Dipole Moment    :      0.00046      -0.00000       0.52036
                        -----------------------------------------
Magnitude (a.u.)       :      0.52036
Magnitude (Debye)      :      1.32266

Dispersion correction in the Hessian             ... done   (      0.1 sec)

VIBRATIONAL FREQUENCIES
-----------------------

Scaling factor for frequencies =  1.000000000  (already applied!)

   0:         0.00 cm**-1
   1:         0.00 cm**-1
   2:         0.00 cm**-1
   3:         0.00 cm**-1
   4:         0.00 cm**-1
   5:         0.00 cm**-1
   6:       603.14 cm**-1
   7:       603.85 cm**-1
   8:       802.82 cm**-1
   9:       980.60 cm**-1
  10:       981.51 cm**-1
  11:      1056.75 cm**-1

IR SPECTRUM
-----------

 Mode   freq       eps      Int      T**2         TX        TY        TZ
       cm**-1   L/(mol*cm) km/mol    a.u.
----------------------------------------------------------------------------
  6:    603.14   0.000296    1.50  0.000153  ( 0.012386 -0.000001 -0.000009)
  7:    603.85   0.000293    1.48  0.000151  (-0.000001 -0.012308 -0.000000)
  8:    802.82   0.003150   15.92  0.001224  (-0.000144 -0.000000 -0.034991)
  9:    980.60   0.056076  283.39  0.017846  (-0.000058  0.133587 -0.000000)
 10:    981.51   0.056111  283.56  0.017840  ( 0.133567  0.000058  0.000155)
 11:   1056.75   0.008444   42.67  0.002494  (-0.000514  0.000000  0.049934)

--------------------------
THERMOCHEMISTRY AT 298.15K
--------------------------

Temperature         ... 298.15 K
Pressure            ... 1.00 atm
Total Mass          ... 69.00 AMU

Throughout the following assumptions are being made:
  (1) The electronic state is orbitally nondegenerate
      but the spin degeneracy is treated
  (2) There are no thermally accessible electronically excited states
  (3) Hindered rotations indicated by low frequency modes are not
      treated as such but are treated as vibrations and this may
      cause some error
  (4) All equations used are the standard statistical mechanics
      equations for an ideal gas
  (5) All vibrations are strictly harmonic

freq.     603.14  E(vib)   ...       0.10
freq.     603.85  E(vib)   ...       0.10
freq.     802.82  E(vib)   ...       0.05
freq.     980.60  E(vib)   ...       0.02
freq.     981.51  E(vib)   ...       0.02
freq.    1056.75  E(vib)   ...       0.02

------------
INNER ENERGY
------------

The inner energy is: U= E(el) + E(ZPE) + E(vib) + E(rot) + E(trans)
    E(el)   - is the total energy from the electronic structure calculation
              = E(kin-el) + E(nuc-el) + E(el-el) + E(nuc-nuc)
    E(ZPE)  - the the zero temperature vibrational energy from the frequency calculation
    E(vib)  - the the finite temperature correction to E(ZPE) due to population
              of excited vibrational states
    E(rot)  - is the rotational thermal energy
    E(trans)- is the translational thermal energy

Summary of contributions to the inner energy U:
Electronic energy                ...   -337.57434544 Eh
Zero point energy                ...      0.01145616 Eh       7.19 kcal/mol
Thermal vibrational correction   ...      0.00050254 Eh       0.32 kcal/mol
Thermal rotational correction    ...      0.00141627 Eh       0.89 kcal/mol
Thermal translational correction ...      0.00141627 Eh       0.89 kcal/mol
-----------------------------------------------------------------------
Total thermal energy                   -337.55955419 Eh

Summary of corrections to the electronic energy:
(perhaps to be used in another calculation)
Total thermal correction                  0.00333509 Eh       2.09 kcal/mol
Non-thermal (ZPE) correction              0.01145616 Eh       7.19 kcal/mol
-----------------------------------------------------------------------
Total correction                          0.01479124 Eh       9.28 kcal/mol

--------
ENTHALPY
--------

The enthalpy is H = U + kB*T
                kB is Boltzmann's constant
Total free energy                 ...   -337.55955419 Eh
Thermal Enthalpy correction       ...      0.00094421 Eh       0.59 kcal/mol
-----------------------------------------------------------------------
Total Enthalpy                    ...   -337.55860998 Eh

Note: Rotational entropy computed according to Herzberg
Infrared and Raman Spectra, Chapter V,1, Van Nostrand Reinhold, 1945
Point Group:  Cs, Symmetry Number:   1
Rotational constants in cm-1:     0.383890     0.383810     0.215847

Vibrational entropy computed according to the QRRHO of S. Grimme
Chem.Eur.J. 2012 18 9955

-------
ENTROPY
-------

The entropy contributions are T*S = T*(S(el)+S(vib)+S(rot)+S(trans))
     S(el)   - electronic entropy
     S(vib)  - vibrational entropy
     S(rot)  - rotational entropy
     S(trans)- translational entropy
The entropies will be listed as multiplied by the temperature to get
units of energy

Electronic entropy                ...      0.00065446 Eh      0.41 kcal/mol
Vibrational entropy               ...      0.00065092 Eh      0.41 kcal/mol
Rotational entropy                ...      0.01113867 Eh      6.99 kcal/mol
Translational entropy             ...      0.01834582 Eh     11.51 kcal/mol
-----------------------------------------------------------------------
Final entropy term                ...      0.03078986 Eh     19.32 kcal/mol

In case the symmetry of your molecule has not been determined correctly
or in case you have a reason to use a different symmetry number we print
out the resulting rotational entropy values for sn=1,12 :
 --------------------------------------------------------
|  sn= 1 | S(rot)=       0.01113867 Eh      6.99 kcal/mol|
|  sn= 2 | S(rot)=       0.01048421 Eh      6.58 kcal/mol|
|  sn= 3 | S(rot)=       0.01010138 Eh      6.34 kcal/mol|
|  sn= 4 | S(rot)=       0.00982976 Eh      6.17 kcal/mol|
|  sn= 5 | S(rot)=       0.00961907 Eh      6.04 kcal/mol|
|  sn= 6 | S(rot)=       0.00944692 Eh      5.93 kcal/mol|
|  sn= 7 | S(rot)=       0.00930138 Eh      5.84 kcal/mol|
|  sn= 8 | S(rot)=       0.00917530 Eh      5.76 kcal/mol|
|  sn= 9 | S(rot)=       0.00906409 Eh      5.69 kcal/mol|
|  sn=10 | S(rot)=       0.00896461 Eh      5.63 kcal/mol|
|  sn=11 | S(rot)=       0.00887462 Eh      5.57 kcal/mol|
|  sn=12 | S(rot)=       0.00879247 Eh      5.52 kcal/mol|
 --------------------------------------------------------

-------------------
GIBBS FREE ENERGY
-------------------

The Gibbs free energy is G = H - T*S

Total enthalpy                    ...   -337.55860998 Eh
Total entropy correction          ...     -0.03078986 Eh    -19.32 kcal/mol
-----------------------------------------------------------------------
Final Gibbs free energy         ...   -337.58939984 Eh

For completeness - the Gibbs free energy minus the electronic energy
G-E(el)                           ...     -0.01505441 Eh     -9.45 kcal/mol

                             ****ORCA TERMINATED NORMALLY****
TOTAL RUN TIME: 0 days 0 hours 1 minutes 59 seconds 264 msec
