                         Program Version 5.0.4 -  RELEASE  -
|  1> ! UKS TightSCF wB97x-D3 def2-TZVPD xyzfile opt freq
|  2>
|  3> # CF3 radical 102.5 degrees fixed
|  4>
|  5> %maxcore 1000
|  6> %pal
|  7> nprocs 18
|  8> end
|  9>
| 10> %geom Constraints
| 11>         { A * 0 * C }
| 12>     end
| 13> end
| 14> * xyz 0 2
| 15> C 0.00 0.00 0.00
| 16> F 1.1842009377 0.0000000000 -0.5717456944
| 17> F -0.5921004689 1.0255480953 -0.5717456944
| 18> F -0.5921004689 -1.0255480953 -0.5717456944
| 19> **                         ****END OF INPUT****
 Total Charge           Charge          ....    0
 Multiplicity           Mult            ....    2
 Number of Electrons    NEL             ....   33
Dispersion correction           -0.000053130
FINAL SINGLE POINT ENERGY      -337.610316412245
Dispersion correction            ... done
Dispersion correction           -0.000059499
FINAL SINGLE POINT ENERGY      -337.611775639085
Dispersion correction            ... done
Dispersion correction           -0.000060639
FINAL SINGLE POINT ENERGY      -337.611806132372
Dispersion correction            ... done
                    ***********************HURRAY********************

CARTESIAN COORDINATES (ANGSTROEM)
---------------------------------
  C     -0.000149   -0.000000    0.007293
  F      1.204541   -0.000000   -0.574225
  F     -0.602196    1.042858   -0.574153
  F     -0.602196   -1.042858   -0.574153

 Multiplicity           Mult            ....    2
 Number of Electrons    NEL             ....   33
 Basis Dimension        Dim             ....  157

ORBITAL ENERGIES
----------------
                 SPIN UP ORBITALS
  NO   OCC          E(Eh)            E(eV)
   0   1.0000     -24.843646      -676.0300
   1   1.0000     -24.843642      -676.0299
   2   1.0000     -24.843484      -676.0256
   3   1.0000     -10.558111      -287.3008
   4   1.0000      -1.468697       -39.9653
   5   1.0000      -1.364763       -37.1371
   6   1.0000      -1.364594       -37.1325
   7   1.0000      -0.838622       -22.8201
   8   1.0000      -0.720827       -19.6147
   9   1.0000      -0.720777       -19.6133
  10   1.0000      -0.698529       -19.0080
  11   1.0000      -0.603277       -16.4160
  12   1.0000      -0.603277       -16.4160
  13   1.0000      -0.550743       -14.9865
  14   1.0000      -0.550675       -14.9846
  15   1.0000      -0.531111       -14.4523
  16   1.0000      -0.431927       -11.7533
  17   0.0000       0.072287         1.9670
  18   0.0000       0.104752         2.8504
  19   0.0000       0.104755         2.8505
  20   0.0000       0.112263         3.0548
  21   0.0000       0.160325         4.3627

                 SPIN DOWN ORBITALS
  NO   OCC          E(Eh)            E(eV)
   0   1.0000     -24.840730      -675.9506
   1   1.0000     -24.840721      -675.9504
   2   1.0000     -24.840564      -675.9461
   3   1.0000     -10.545110      -286.9470
   4   1.0000      -1.459546       -39.7163
   5   1.0000      -1.356036       -36.8996
   6   1.0000      -1.355864       -36.8949
   7   1.0000      -0.819201       -22.2916
   8   1.0000      -0.709713       -19.3123
   9   1.0000      -0.709668       -19.3110
  10   1.0000      -0.658547       -17.9200
  11   1.0000      -0.591502       -16.0956
  12   1.0000      -0.591498       -16.0955
  13   1.0000      -0.543192       -14.7810
  14   1.0000      -0.543120       -14.7791
  15   1.0000      -0.527792       -14.3620
  16   0.0000      -0.080429        -2.1886
  17   0.0000       0.082306         2.2397
  18   0.0000       0.108001         2.9389
  19   0.0000       0.108008         2.9391
  20   0.0000       0.126455         3.4410

MULLIKEN ATOMIC CHARGES AND SPIN POPULATIONS
--------------------------------------------
   0 C :    0.541764    0.780734
   1 F :   -0.180707    0.073098
   2 F :   -0.180528    0.073084
   3 F :   -0.180529    0.073085
Sum of atomic charges         :   -0.0000000

LOEWDIN ATOMIC CHARGES AND SPIN POPULATIONS
-------------------------------------------
   0 C :   -0.292376    0.623735
   1 F :    0.097131    0.125418
   2 F :    0.097622    0.125424
   3 F :    0.097623    0.125424

  Mayer bond orders larger than 0.100000
B(  0-C ,  1-F ) :   1.0570 B(  0-C ,  2-F ) :   1.0572 B(  0-C ,  3-F ) :   1.0572

Dispersion correction           -0.000060728
FINAL SINGLE POINT ENERGY      -337.611805984694

DIPOLE MOMENT
-------------
                                X             Y             Z
Electronic contribution:     -0.00096      -0.00000       0.07212
Nuclear contribution   :     -0.00010      -0.00000       0.28132
                        -----------------------------------------
Total Dipole Moment    :     -0.00106      -0.00000       0.35344
                        -----------------------------------------
Magnitude (a.u.)       :      0.35344
Magnitude (Debye)      :      0.89838

Dispersion correction in the Hessian             ... done   (      0.1 sec)

VIBRATIONAL FREQUENCIES
-----------------------

Scaling factor for frequencies =  1.000000000  (already applied!)

   0:         0.00 cm**-1
   1:         0.00 cm**-1
   2:         0.00 cm**-1
   3:         0.00 cm**-1
   4:         0.00 cm**-1
   5:         0.00 cm**-1
   6:       565.57 cm**-1
   7:       565.98 cm**-1
   8:       764.56 cm**-1
   9:      1110.33 cm**-1
  10:      1118.08 cm**-1
  11:      1119.74 cm**-1

IR SPECTRUM
-----------

 Mode   freq       eps      Int      T**2         TX        TY        TZ
       cm**-1   L/(mol*cm) km/mol    a.u.
----------------------------------------------------------------------------
  6:    565.57   0.000294    1.49  0.000162  ( 0.012744  0.000002  0.000048)
  7:    565.98   0.000293    1.48  0.000162  (-0.000002  0.012715  0.000000)
  8:    764.56   0.002498   12.63  0.001020  (-0.000111 -0.000000 -0.031933)
  9:   1110.33   0.010014   50.61  0.002814  ( 0.014526  0.000006 -0.051024)
 10:   1118.08   0.062934  318.04  0.017565  ( 0.132417 -0.000068  0.005561)
 11:   1119.74   0.063524  321.02  0.017704  ( 0.000067  0.133055  0.000005)

--------------------------
THERMOCHEMISTRY AT 298.15K
--------------------------

Temperature         ... 298.15 K
Pressure            ... 1.00 atm
Total Mass          ... 69.00 AMU

Throughout the following assumptions are being made:
  (1) The electronic state is orbitally nondegenerate
      but the spin degeneracy is treated
  (2) There are no thermally accessible electronically excited states
  (3) Hindered rotations indicated by low frequency modes are not
      treated as such but are treated as vibrations and this may
      cause some error
  (4) All equations used are the standard statistical mechanics
      equations for an ideal gas
  (5) All vibrations are strictly harmonic

freq.     565.57  E(vib)   ...       0.11
freq.     565.98  E(vib)   ...       0.11
freq.     764.56  E(vib)   ...       0.06
freq.    1110.33  E(vib)   ...       0.02
freq.    1118.08  E(vib)   ...       0.01
freq.    1119.74  E(vib)   ...       0.01

------------
INNER ENERGY
------------

The inner energy is: U= E(el) + E(ZPE) + E(vib) + E(rot) + E(trans)
    E(el)   - is the total energy from the electronic structure calculation
              = E(kin-el) + E(nuc-el) + E(el-el) + E(nuc-nuc)
    E(ZPE)  - the the zero temperature vibrational energy from the frequency calculation
    E(vib)  - the the finite temperature correction to E(ZPE) due to population
              of excited vibrational states
    E(rot)  - is the rotational thermal energy
    E(trans)- is the translational thermal energy

Summary of contributions to the inner energy U:
Electronic energy                ...   -337.61180598 Eh
Zero point energy                ...      0.01194733 Eh       7.50 kcal/mol
Thermal vibrational correction   ...      0.00051915 Eh       0.33 kcal/mol
Thermal rotational correction    ...      0.00141627 Eh       0.89 kcal/mol
Thermal translational correction ...      0.00141627 Eh       0.89 kcal/mol
-----------------------------------------------------------------------
Total thermal energy                   -337.59650697 Eh

Summary of corrections to the electronic energy:
(perhaps to be used in another calculation)
Total thermal correction                  0.00335169 Eh       2.10 kcal/mol
Non-thermal (ZPE) correction              0.01194733 Eh       7.50 kcal/mol
-----------------------------------------------------------------------
Total correction                          0.01529902 Eh       9.60 kcal/mol

--------
ENTHALPY
--------

The enthalpy is H = U + kB*T
                kB is Boltzmann's constant
Total free energy                 ...   -337.59650697 Eh
Thermal Enthalpy correction       ...      0.00094421 Eh       0.59 kcal/mol
-----------------------------------------------------------------------
Total Enthalpy                    ...   -337.59556276 Eh

Note: Rotational entropy computed according to Herzberg
Infrared and Raman Spectra, Chapter V,1, Van Nostrand Reinhold, 1945
Point Group:  Cs, Symmetry Number:   1
Rotational constants in cm-1:     0.377324     0.377149     0.203925

Vibrational entropy computed according to the QRRHO of S. Grimme
Chem.Eur.J. 2012 18 9955

-------
ENTROPY
-------

The entropy contributions are T*S = T*(S(el)+S(vib)+S(rot)+S(trans))
     S(el)   - electronic entropy
     S(vib)  - vibrational entropy
     S(rot)  - rotational entropy
     S(trans)- translational entropy
The entropies will be listed as multiplied by the temperature to get
units of energy

Electronic entropy                ...      0.00065446 Eh      0.41 kcal/mol
Vibrational entropy               ...      0.00068407 Eh      0.43 kcal/mol
Rotational entropy                ...      0.01118190 Eh      7.02 kcal/mol
Translational entropy             ...      0.01834582 Eh     11.51 kcal/mol
-----------------------------------------------------------------------
Final entropy term                ...      0.03086624 Eh     19.37 kcal/mol

In case the symmetry of your molecule has not been determined correctly
or in case you have a reason to use a different symmetry number we print
out the resulting rotational entropy values for sn=1,12 :
 --------------------------------------------------------
|  sn= 1 | S(rot)=       0.01118190 Eh      7.02 kcal/mol|
|  sn= 2 | S(rot)=       0.01052745 Eh      6.61 kcal/mol|
|  sn= 3 | S(rot)=       0.01014461 Eh      6.37 kcal/mol|
|  sn= 4 | S(rot)=       0.00987299 Eh      6.20 kcal/mol|
|  sn= 5 | S(rot)=       0.00966230 Eh      6.06 kcal/mol|
|  sn= 6 | S(rot)=       0.00949016 Eh      5.96 kcal/mol|
|  sn= 7 | S(rot)=       0.00934461 Eh      5.86 kcal/mol|
|  sn= 8 | S(rot)=       0.00921853 Eh      5.78 kcal/mol|
|  sn= 9 | S(rot)=       0.00910732 Eh      5.71 kcal/mol|
|  sn=10 | S(rot)=       0.00900785 Eh      5.65 kcal/mol|
|  sn=11 | S(rot)=       0.00891786 Eh      5.60 kcal/mol|
|  sn=12 | S(rot)=       0.00883570 Eh      5.54 kcal/mol|
 --------------------------------------------------------

-------------------
GIBBS FREE ENERGY
-------------------

The Gibbs free energy is G = H - T*S

Total enthalpy                    ...   -337.59556276 Eh
Total entropy correction          ...     -0.03086624 Eh    -19.37 kcal/mol
-----------------------------------------------------------------------
Final Gibbs free energy         ...   -337.62642900 Eh

For completeness - the Gibbs free energy minus the electronic energy
G-E(el)                           ...     -0.01462301 Eh     -9.18 kcal/mol

                             ****ORCA TERMINATED NORMALLY****
TOTAL RUN TIME: 0 days 0 hours 2 minutes 11 seconds 194 msec
