                         Program Version 5.0.4 -  RELEASE  -
|  1> ! UKS TightSCF wB97x-D3 def2-TZVPD xyzfile opt freq
|  2>
|  3> # CF3 radical 109.0 degrees fixed
|  4>
|  5> %maxcore 1000
|  6> %pal
|  7> nprocs 18
|  8> end
|  9>
| 10> %geom Constraints
| 11>         { A * 0 * C }
| 12>     end
| 13> end
| 14> * xyz 0 2
| 15> C 0.00 0.00 0.00
| 16> F 1.2361784100 0.0000000000 -0.4484282983
| 17> F -0.6180892050 1.0705619066 -0.4484282983
| 18> F -0.6180892050 -1.0705619066 -0.4484282983
| 19> **                         ****END OF INPUT****
 Total Charge           Charge          ....    0
 Multiplicity           Mult            ....    2
 Number of Electrons    NEL             ....   33
Dispersion correction           -0.000074172
FINAL SINGLE POINT ENERGY      -337.630967294222
Dispersion correction            ... done
Dispersion correction           -0.000075765
FINAL SINGLE POINT ENERGY      -337.631025079890
Dispersion correction            ... done
Dispersion correction           -0.000076108
FINAL SINGLE POINT ENERGY      -337.631027454076
Dispersion correction            ... done
                    ***********************HURRAY********************

CARTESIAN COORDINATES (ANGSTROEM)
---------------------------------
  C      0.000136    0.000000    0.001109
  F      1.240058    0.000000   -0.448765
  F     -0.620097    1.074226   -0.448815
  F     -0.620097   -1.074226   -0.448815

 Multiplicity           Mult            ....    2
 Number of Electrons    NEL             ....   33
 Basis Dimension        Dim             ....  157

ORBITAL ENERGIES
----------------
                 SPIN UP ORBITALS
  NO   OCC          E(Eh)            E(eV)
   0   1.0000     -24.851115      -676.2332
   1   1.0000     -24.850968      -676.2292
   2   1.0000     -24.850963      -676.2291
   3   1.0000     -10.544950      -286.9427
   4   1.0000      -1.471194       -40.0332
   5   1.0000      -1.379458       -37.5370
   6   1.0000      -1.379292       -37.5325
   7   1.0000      -0.839069       -22.8322
   8   1.0000      -0.731169       -19.8961
   9   1.0000      -0.731128       -19.8950
  10   1.0000      -0.701099       -19.0779
  11   1.0000      -0.606812       -16.5122
  12   1.0000      -0.606804       -16.5120
  13   1.0000      -0.567979       -15.4555
  14   1.0000      -0.567930       -15.4542
  15   1.0000      -0.543624       -14.7928
  16   1.0000      -0.390428       -10.6241
  17   0.0000       0.071025         1.9327
  18   0.0000       0.104582         2.8458
  19   0.0000       0.104589         2.8460
  20   0.0000       0.113674         3.0932
  21   0.0000       0.159495         4.3401

                 SPIN DOWN ORBITALS
  NO   OCC          E(Eh)            E(eV)
   0   1.0000     -24.848131      -676.1520
   1   1.0000     -24.847987      -676.1481
   2   1.0000     -24.847977      -676.1478
   3   1.0000     -10.532080      -286.5925
   4   1.0000      -1.461471       -39.7686
   5   1.0000      -1.370831       -37.3022
   6   1.0000      -1.370664       -37.2977
   7   1.0000      -0.820741       -22.3335
   8   1.0000      -0.720659       -19.6101
   9   1.0000      -0.720609       -19.6088
  10   1.0000      -0.662499       -18.0275
  11   1.0000      -0.595635       -16.2080
  12   1.0000      -0.595620       -16.2076
  13   1.0000      -0.559240       -15.2177
  14   1.0000      -0.559179       -15.2160
  15   1.0000      -0.540341       -14.7034
  16   0.0000      -0.037949        -1.0326
  17   0.0000       0.082127         2.2348
  18   0.0000       0.107666         2.9297
  19   0.0000       0.107674         2.9300
  20   0.0000       0.129673         3.5286

MULLIKEN ATOMIC CHARGES AND SPIN POPULATIONS
--------------------------------------------
   0 C :    0.538185    0.804404
   1 F :   -0.179249    0.065193
   2 F :   -0.179467    0.065201
   3 F :   -0.179468    0.065202
Sum of atomic charges         :   -0.0000000

LOEWDIN ATOMIC CHARGES AND SPIN POPULATIONS
-------------------------------------------
   0 C :   -0.384773    0.617120
   1 F :    0.128592    0.127664
   2 F :    0.128091    0.127608
   3 F :    0.128091    0.127608

  Mayer bond orders larger than 0.100000
B(  0-C ,  1-F ) :   1.0525 B(  0-C ,  2-F ) :   1.0522 B(  0-C ,  3-F ) :   1.0522

Dispersion correction           -0.000076113
FINAL SINGLE POINT ENERGY      -337.631027460670

DIPOLE MOMENT
-------------
                                X             Y             Z
Electronic contribution:      0.00087       0.00000      -0.04228
Nuclear contribution   :      0.00009       0.00000       0.21767
                        -----------------------------------------
Total Dipole Moment    :      0.00095       0.00000       0.17539
                        -----------------------------------------
Magnitude (a.u.)       :      0.17539
Magnitude (Debye)      :      0.44581

Dispersion correction in the Hessian             ... done   (      0.1 sec)

VIBRATIONAL FREQUENCIES
-----------------------

Scaling factor for frequencies =  1.000000000  (already applied!)

   0:         0.00 cm**-1
   1:         0.00 cm**-1
   2:         0.00 cm**-1
   3:         0.00 cm**-1
   4:         0.00 cm**-1
   5:         0.00 cm**-1
   6:       526.44 cm**-1
   7:       526.48 cm**-1
   8:       725.25 cm**-1
   9:      1113.58 cm**-1
  10:      1233.59 cm**-1
  11:      1234.84 cm**-1

IR SPECTRUM
-----------

 Mode   freq       eps      Int      T**2         TX        TY        TZ
       cm**-1   L/(mol*cm) km/mol    a.u.
----------------------------------------------------------------------------
  6:    526.44   0.000296    1.49  0.000175  (-0.000033 -0.013238  0.000000)
  7:    526.48   0.000297    1.50  0.000176  (-0.013270  0.000033  0.000046)
  8:    725.25   0.002369   11.97  0.001019  (-0.000088 -0.000000  0.031926)
  9:   1113.58   0.008464   42.78  0.002372  ( 0.000795  0.000000  0.048697)
 10:   1233.59   0.070127  354.39  0.017740  (-0.000035 -0.133193  0.000000)
 11:   1234.84   0.070188  354.70  0.017737  (-0.133182  0.000035  0.000205)

--------------------------
THERMOCHEMISTRY AT 298.15K
--------------------------

Temperature         ... 298.15 K
Pressure            ... 1.00 atm
Total Mass          ... 69.00 AMU

Throughout the following assumptions are being made:
  (1) The electronic state is orbitally nondegenerate
      but the spin degeneracy is treated
  (2) There are no thermally accessible electronically excited states
  (3) Hindered rotations indicated by low frequency modes are not
      treated as such but are treated as vibrations and this may
      cause some error
  (4) All equations used are the standard statistical mechanics
      equations for an ideal gas
  (5) All vibrations are strictly harmonic

freq.     526.44  E(vib)   ...       0.13
freq.     526.48  E(vib)   ...       0.13
freq.     725.25  E(vib)   ...       0.06
freq.    1113.58  E(vib)   ...       0.01
freq.    1233.59  E(vib)   ...       0.01
freq.    1234.84  E(vib)   ...       0.01

------------
INNER ENERGY
------------

The inner energy is: U= E(el) + E(ZPE) + E(vib) + E(rot) + E(trans)
    E(el)   - is the total energy from the electronic structure calculation
              = E(kin-el) + E(nuc-el) + E(el-el) + E(nuc-nuc)
    E(ZPE)  - the the zero temperature vibrational energy from the frequency calculation
    E(vib)  - the the finite temperature correction to E(ZPE) due to population
              of excited vibrational states
    E(rot)  - is the rotational thermal energy
    E(trans)- is the translational thermal energy

Summary of contributions to the inner energy U:
Electronic energy                ...   -337.63102746 Eh
Zero point energy                ...      0.01221139 Eh       7.66 kcal/mol
Thermal vibrational correction   ...      0.00056632 Eh       0.36 kcal/mol
Thermal rotational correction    ...      0.00141627 Eh       0.89 kcal/mol
Thermal translational correction ...      0.00141627 Eh       0.89 kcal/mol
-----------------------------------------------------------------------
Total thermal energy                   -337.61541720 Eh

Summary of corrections to the electronic energy:
(perhaps to be used in another calculation)
Total thermal correction                  0.00339886 Eh       2.13 kcal/mol
Non-thermal (ZPE) correction              0.01221139 Eh       7.66 kcal/mol
-----------------------------------------------------------------------
Total correction                          0.01561026 Eh       9.80 kcal/mol

--------
ENTHALPY
--------

The enthalpy is H = U + kB*T
                kB is Boltzmann's constant
Total free energy                 ...   -337.61541720 Eh
Thermal Enthalpy correction       ...      0.00094421 Eh       0.59 kcal/mol
-----------------------------------------------------------------------
Total Enthalpy                    ...   -337.61447300 Eh

Note: Rotational entropy computed according to Herzberg
Infrared and Raman Spectra, Chapter V,1, Van Nostrand Reinhold, 1945
Point Group:  Cs, Symmetry Number:   1
Rotational constants in cm-1:     0.367811     0.367638     0.192285

Vibrational entropy computed according to the QRRHO of S. Grimme
Chem.Eur.J. 2012 18 9955

-------
ENTROPY
-------

The entropy contributions are T*S = T*(S(el)+S(vib)+S(rot)+S(trans))
     S(el)   - electronic entropy
     S(vib)  - vibrational entropy
     S(rot)  - rotational entropy
     S(trans)- translational entropy
The entropies will be listed as multiplied by the temperature to get
units of energy

Electronic entropy                ...      0.00065446 Eh      0.41 kcal/mol
Vibrational entropy               ...      0.00076049 Eh      0.48 kcal/mol
Rotational entropy                ...      0.01123376 Eh      7.05 kcal/mol
Translational entropy             ...      0.01834582 Eh     11.51 kcal/mol
-----------------------------------------------------------------------
Final entropy term                ...      0.03099452 Eh     19.45 kcal/mol

In case the symmetry of your molecule has not been determined correctly
or in case you have a reason to use a different symmetry number we print
out the resulting rotational entropy values for sn=1,12 :
 --------------------------------------------------------
|  sn= 1 | S(rot)=       0.01123376 Eh      7.05 kcal/mol|
|  sn= 2 | S(rot)=       0.01057930 Eh      6.64 kcal/mol|
|  sn= 3 | S(rot)=       0.01019647 Eh      6.40 kcal/mol|
|  sn= 4 | S(rot)=       0.00992485 Eh      6.23 kcal/mol|
|  sn= 5 | S(rot)=       0.00971416 Eh      6.10 kcal/mol|
|  sn= 6 | S(rot)=       0.00954202 Eh      5.99 kcal/mol|
|  sn= 7 | S(rot)=       0.00939647 Eh      5.90 kcal/mol|
|  sn= 8 | S(rot)=       0.00927039 Eh      5.82 kcal/mol|
|  sn= 9 | S(rot)=       0.00915918 Eh      5.75 kcal/mol|
|  sn=10 | S(rot)=       0.00905970 Eh      5.69 kcal/mol|
|  sn=11 | S(rot)=       0.00896971 Eh      5.63 kcal/mol|
|  sn=12 | S(rot)=       0.00888756 Eh      5.58 kcal/mol|
 --------------------------------------------------------

-------------------
GIBBS FREE ENERGY
-------------------

The Gibbs free energy is G = H - T*S

Total enthalpy                    ...   -337.61447300 Eh
Total entropy correction          ...     -0.03099452 Eh    -19.45 kcal/mol
-----------------------------------------------------------------------
Final Gibbs free energy         ...   -337.64546752 Eh

For completeness - the Gibbs free energy minus the electronic energy
G-E(el)                           ...     -0.01444006 Eh     -9.06 kcal/mol

                             ****ORCA TERMINATED NORMALLY****
TOTAL RUN TIME: 0 days 0 hours 2 minutes 18 seconds 424 msec
