                         Program Version 5.0.4 -  RELEASE  -
|  1> ! UKS TightSCF wB97x-D3 def2-TZVPD xyzfile opt freq
|  2>
|  3> # CF3 radical 102.0 degrees fixed
|  4>
|  5> %maxcore 1000
|  6> %pal
|  7> nprocs 18
|  8> end
|  9>
| 10> %geom Constraints
| 11>         { A * 0 * C }
| 12>     end
| 13> end
| 14> * xyz 0 2
| 15> C 0.00 0.00 0.00
| 16> F 1.1800426810 0.0000000000 -0.5802794766
| 17> F -0.5900213405 1.0219469393 -0.5802794766
| 18> F -0.5900213405 -1.0219469393 -0.5802794766
| 19> **                         ****END OF INPUT****
 Total Charge           Charge          ....    0
 Multiplicity           Mult            ....    2
 Number of Electrons    NEL             ....   33
Dispersion correction           -0.000051695
FINAL SINGLE POINT ENERGY      -337.607816534274
Dispersion correction            ... done
Dispersion correction           -0.000058418
FINAL SINGLE POINT ENERGY      -337.609511932331
Dispersion correction            ... done
Dispersion correction           -0.000059604
FINAL SINGLE POINT ENERGY      -337.609546222240
Dispersion correction            ... done
                    ***********************HURRAY********************

CARTESIAN COORDINATES (ANGSTROEM)
---------------------------------
  C     -0.000132   -0.000000    0.007976
  F      1.201847   -0.000000   -0.582982
  F     -0.600857    1.040561   -0.582917
  F     -0.600857   -1.040561   -0.582917

 Multiplicity           Mult            ....    2
 Number of Electrons    NEL             ....   33
 Basis Dimension        Dim             ....  157

ORBITAL ENERGIES
----------------
                 SPIN UP ORBITALS
  NO   OCC          E(Eh)            E(eV)
   0   1.0000     -24.843032      -676.0133
   1   1.0000     -24.843028      -676.0132
   2   1.0000     -24.842892      -676.0095
   3   1.0000     -10.559166      -287.3295
   4   1.0000      -1.468321       -39.9550
   5   1.0000      -1.363484       -37.1023
   6   1.0000      -1.363336       -37.0983
   7   1.0000      -0.838569       -22.8186
   8   1.0000      -0.719881       -19.5889
   9   1.0000      -0.719836       -19.5877
  10   1.0000      -0.698257       -19.0005
  11   1.0000      -0.602916       -16.4062
  12   1.0000      -0.602916       -16.4062
  13   1.0000      -0.549325       -14.9479
  14   1.0000      -0.549265       -14.9463
  15   1.0000      -0.530067       -14.4239
  16   1.0000      -0.434813       -11.8319
  17   0.0000       0.072311         1.9677
  18   0.0000       0.104619         2.8468
  19   0.0000       0.104621         2.8469
  20   0.0000       0.112190         3.0529
  21   0.0000       0.160047         4.3551

                 SPIN DOWN ORBITALS
  NO   OCC          E(Eh)            E(eV)
   0   1.0000     -24.840121      -675.9340
   1   1.0000     -24.840112      -675.9338
   2   1.0000     -24.839976      -675.9301
   3   1.0000     -10.546156      -286.9755
   4   1.0000      -1.459205       -39.7070
   5   1.0000      -1.354749       -36.8646
   6   1.0000      -1.354599       -36.8605
   7   1.0000      -0.819020       -22.2867
   8   1.0000      -0.708729       -19.2855
   9   1.0000      -0.708688       -19.2844
  10   1.0000      -0.658181       -17.9100
  11   1.0000      -0.591100       -16.0847
  12   1.0000      -0.591095       -16.0845
  13   1.0000      -0.541839       -14.7442
  14   1.0000      -0.541777       -14.7425
  15   1.0000      -0.526746       -14.3335
  16   0.0000      -0.083468        -2.2713
  17   0.0000       0.082296         2.2394
  18   0.0000       0.107954         2.9376
  19   0.0000       0.107960         2.9378
  20   0.0000       0.126220         3.4346

MULLIKEN ATOMIC CHARGES AND SPIN POPULATIONS
--------------------------------------------
   0 C :    0.541391    0.779051
   1 F :   -0.180567    0.073662
   2 F :   -0.180413    0.073643
   3 F :   -0.180411    0.073644
Sum of atomic charges         :    0.0000000

LOEWDIN ATOMIC CHARGES AND SPIN POPULATIONS
-------------------------------------------
   0 C :   -0.284128    0.624155
   1 F :    0.094421    0.125281
   2 F :    0.094853    0.125282
   3 F :    0.094854    0.125282

  Mayer bond orders larger than 0.100000
B(  0-C ,  1-F ) :   1.0574 B(  0-C ,  2-F ) :   1.0575 B(  0-C ,  3-F ) :   1.0575

Dispersion correction           -0.000059704
FINAL SINGLE POINT ENERGY      -337.609546038159

DIPOLE MOMENT
-------------
                                X             Y             Z
Electronic contribution:     -0.00085      -0.00000       0.08069
Nuclear contribution   :     -0.00009      -0.00000       0.28589
                        -----------------------------------------
Total Dipole Moment    :     -0.00094      -0.00000       0.36658
                        -----------------------------------------
Magnitude (a.u.)       :      0.36658
Magnitude (Debye)      :      0.93178

Dispersion correction in the Hessian             ... done   (      0.1 sec)

VIBRATIONAL FREQUENCIES
-----------------------

Scaling factor for frequencies =  1.000000000  (already applied!)

   0:         0.00 cm**-1
   1:         0.00 cm**-1
   2:         0.00 cm**-1
   3:         0.00 cm**-1
   4:         0.00 cm**-1
   5:         0.00 cm**-1
   6:       568.44 cm**-1
   7:       569.01 cm**-1
   8:       767.55 cm**-1
   9:      1107.35 cm**-1
  10:      1108.91 cm**-1
  11:      1109.84 cm**-1

IR SPECTRUM
-----------

 Mode   freq       eps      Int      T**2         TX        TY        TZ
       cm**-1   L/(mol*cm) km/mol    a.u.
----------------------------------------------------------------------------
  6:    568.44   0.000295    1.49  0.000162  ( 0.012719 -0.000000  0.000058)
  7:    569.01   0.000293    1.48  0.000161  (-0.000000 -0.012671 -0.000000)
  8:    767.55   0.002522   12.74  0.001025  (-0.000111 -0.000000 -0.032020)
  9:   1107.35   0.029561  149.39  0.008331  (-0.081755  0.000014  0.040579)
 10:   1108.91   0.042825  216.42  0.012052  ( 0.105163 -0.000083  0.031500)
 11:   1109.84   0.062969  318.22  0.017706  ( 0.000074  0.133062  0.000015)

--------------------------
THERMOCHEMISTRY AT 298.15K
--------------------------

Temperature         ... 298.15 K
Pressure            ... 1.00 atm
Total Mass          ... 69.00 AMU

Throughout the following assumptions are being made:
  (1) The electronic state is orbitally nondegenerate
      but the spin degeneracy is treated
  (2) There are no thermally accessible electronically excited states
  (3) Hindered rotations indicated by low frequency modes are not
      treated as such but are treated as vibrations and this may
      cause some error
  (4) All equations used are the standard statistical mechanics
      equations for an ideal gas
  (5) All vibrations are strictly harmonic

freq.     568.44  E(vib)   ...       0.11
freq.     569.01  E(vib)   ...       0.11
freq.     767.55  E(vib)   ...       0.06
freq.    1107.35  E(vib)   ...       0.02
freq.    1108.91  E(vib)   ...       0.02
freq.    1109.84  E(vib)   ...       0.02

------------
INNER ENERGY
------------

The inner energy is: U= E(el) + E(ZPE) + E(vib) + E(rot) + E(trans)
    E(el)   - is the total energy from the electronic structure calculation
              = E(kin-el) + E(nuc-el) + E(el-el) + E(nuc-nuc)
    E(ZPE)  - the the zero temperature vibrational energy from the frequency calculation
    E(vib)  - the the finite temperature correction to E(ZPE) due to population
              of excited vibrational states
    E(rot)  - is the rotational thermal energy
    E(trans)- is the translational thermal energy

Summary of contributions to the inner energy U:
Electronic energy                ...   -337.60954604 Eh
Zero point energy                ...      0.01191734 Eh       7.48 kcal/mol
Thermal vibrational correction   ...      0.00051665 Eh       0.32 kcal/mol
Thermal rotational correction    ...      0.00141627 Eh       0.89 kcal/mol
Thermal translational correction ...      0.00141627 Eh       0.89 kcal/mol
-----------------------------------------------------------------------
Total thermal energy                   -337.59427950 Eh

Summary of corrections to the electronic energy:
(perhaps to be used in another calculation)
Total thermal correction                  0.00334919 Eh       2.10 kcal/mol
Non-thermal (ZPE) correction              0.01191734 Eh       7.48 kcal/mol
-----------------------------------------------------------------------
Total correction                          0.01526654 Eh       9.58 kcal/mol

--------
ENTHALPY
--------

The enthalpy is H = U + kB*T
                kB is Boltzmann's constant
Total free energy                 ...   -337.59427950 Eh
Thermal Enthalpy correction       ...      0.00094421 Eh       0.59 kcal/mol
-----------------------------------------------------------------------
Total Enthalpy                    ...   -337.59333529 Eh

Note: Rotational entropy computed according to Herzberg
Infrared and Raman Spectra, Chapter V,1, Van Nostrand Reinhold, 1945
Point Group:  Cs, Symmetry Number:   1
Rotational constants in cm-1:     0.377933     0.377779     0.204832

Vibrational entropy computed according to the QRRHO of S. Grimme
Chem.Eur.J. 2012 18 9955

-------
ENTROPY
-------

The entropy contributions are T*S = T*(S(el)+S(vib)+S(rot)+S(trans))
     S(el)   - electronic entropy
     S(vib)  - vibrational entropy
     S(rot)  - rotational entropy
     S(trans)- translational entropy
The entropies will be listed as multiplied by the temperature to get
units of energy

Electronic entropy                ...      0.00065446 Eh      0.41 kcal/mol
Vibrational entropy               ...      0.00067981 Eh      0.43 kcal/mol
Rotational entropy                ...      0.01117826 Eh      7.01 kcal/mol
Translational entropy             ...      0.01834582 Eh     11.51 kcal/mol
-----------------------------------------------------------------------
Final entropy term                ...      0.03085835 Eh     19.36 kcal/mol

In case the symmetry of your molecule has not been determined correctly
or in case you have a reason to use a different symmetry number we print
out the resulting rotational entropy values for sn=1,12 :
 --------------------------------------------------------
|  sn= 1 | S(rot)=       0.01117826 Eh      7.01 kcal/mol|
|  sn= 2 | S(rot)=       0.01052380 Eh      6.60 kcal/mol|
|  sn= 3 | S(rot)=       0.01014097 Eh      6.36 kcal/mol|
|  sn= 4 | S(rot)=       0.00986935 Eh      6.19 kcal/mol|
|  sn= 5 | S(rot)=       0.00965866 Eh      6.06 kcal/mol|
|  sn= 6 | S(rot)=       0.00948651 Eh      5.95 kcal/mol|
|  sn= 7 | S(rot)=       0.00934097 Eh      5.86 kcal/mol|
|  sn= 8 | S(rot)=       0.00921489 Eh      5.78 kcal/mol|
|  sn= 9 | S(rot)=       0.00910368 Eh      5.71 kcal/mol|
|  sn=10 | S(rot)=       0.00900420 Eh      5.65 kcal/mol|
|  sn=11 | S(rot)=       0.00891421 Eh      5.59 kcal/mol|
|  sn=12 | S(rot)=       0.00883206 Eh      5.54 kcal/mol|
 --------------------------------------------------------

-------------------
GIBBS FREE ENERGY
-------------------

The Gibbs free energy is G = H - T*S

Total enthalpy                    ...   -337.59333529 Eh
Total entropy correction          ...     -0.03085835 Eh    -19.36 kcal/mol
-----------------------------------------------------------------------
Final Gibbs free energy         ...   -337.62419364 Eh

For completeness - the Gibbs free energy minus the electronic energy
G-E(el)                           ...     -0.01464760 Eh     -9.19 kcal/mol

                             ****ORCA TERMINATED NORMALLY****
TOTAL RUN TIME: 0 days 0 hours 3 minutes 2 seconds 385 msec
