                         Program Version 5.0.4 -  RELEASE  -
|  1> ! UKS TightSCF wB97x-D3 def2-TZVPD xyzfile opt freq
|  2>
|  3> # CF3 radical 118.0 degrees fixed
|  4>
|  5> %maxcore 1000
|  6> %pal
|  7> nprocs 18
|  8> end
|  9>
| 10> %geom Constraints
| 11>         { A * 0 * C }
| 12>     end
| 13> end
| 14> * xyz 0 2
| 15> C 0.00 0.00 0.00
| 16> F 1.3015495798 0.0000000000 -0.1875998167
| 17> F -0.6507747899 1.1271750004 -0.1875998167
| 18> F -0.6507747899 -1.1271750004 -0.1875998167
| 19> **                         ****END OF INPUT****
 Total Charge           Charge          ....    0
 Multiplicity           Mult            ....    2
 Number of Electrons    NEL             ....   33
Dispersion correction           -0.000110058
FINAL SINGLE POINT ENERGY      -337.612908485205
Dispersion correction            ... done
Dispersion correction           -0.000106732
FINAL SINGLE POINT ENERGY      -337.613024577658
Dispersion correction            ... done
Dispersion correction           -0.000105905
FINAL SINGLE POINT ENERGY      -337.613027618066
Dispersion correction            ... done
                    ***********************HURRAY********************

CARTESIAN COORDINATES (ANGSTROEM)
---------------------------------
  C     -0.000279    0.000000   -0.000703
  F      1.295497    0.000000   -0.187392
  F     -0.647609    1.121227   -0.187352
  F     -0.647609   -1.121227   -0.187352

 Multiplicity           Mult            ....    2
 Number of Electrons    NEL             ....   33
 Basis Dimension        Dim             ....  157

ORBITAL ENERGIES
----------------
                 SPIN UP ORBITALS
  NO   OCC          E(Eh)            E(eV)
   0   1.0000     -24.857906      -676.4180
   1   1.0000     -24.857897      -676.4178
   2   1.0000     -24.857611      -676.4100
   3   1.0000     -10.519062      -286.2382
   4   1.0000      -1.463508       -39.8241
   5   1.0000      -1.390260       -37.8309
   6   1.0000      -1.389868       -37.8202
   7   1.0000      -0.835399       -22.7324
   8   1.0000      -0.735830       -20.0229
   9   1.0000      -0.735719       -20.0199
  10   1.0000      -0.699293       -19.0287
  11   1.0000      -0.603931       -16.4338
  12   1.0000      -0.603922       -16.4335
  13   1.0000      -0.587722       -15.9927
  14   1.0000      -0.587597       -15.9893
  15   1.0000      -0.555217       -15.1082
  16   1.0000      -0.307424        -8.3654
  17   0.0000       0.059600         1.6218
  18   0.0000       0.100301         2.7293
  19   0.0000       0.100315         2.7297
  20   0.0000       0.118723         3.2306
  21   0.0000       0.154112         4.1936

                 SPIN DOWN ORBITALS
  NO   OCC          E(Eh)            E(eV)
   0   1.0000     -24.855006      -676.3391
   1   1.0000     -24.854993      -676.3387
   2   1.0000     -24.854715      -676.3312
   3   1.0000     -10.506072      -285.8848
   4   1.0000      -1.452609       -39.5275
   5   1.0000      -1.382502       -37.6198
   6   1.0000      -1.382124       -37.6095
   7   1.0000      -0.815497       -22.1908
   8   1.0000      -0.727346       -19.7921
   9   1.0000      -0.727250       -19.7895
  10   1.0000      -0.661887       -18.0109
  11   1.0000      -0.596011       -16.2183
  12   1.0000      -0.595912       -16.2156
  13   1.0000      -0.573040       -15.5932
  14   1.0000      -0.572847       -15.5880
  15   1.0000      -0.552180       -15.0256
  16   0.0000       0.038937         1.0595
  17   0.0000       0.077285         2.1030
  18   0.0000       0.104415         2.8413
  19   0.0000       0.104431         2.8417
  20   0.0000       0.133368         3.6291

MULLIKEN ATOMIC CHARGES AND SPIN POPULATIONS
--------------------------------------------
   0 C :    0.507635    0.867885
   1 F :   -0.169309    0.043929
   2 F :   -0.169163    0.044093
   3 F :   -0.169163    0.044093
Sum of atomic charges         :   -0.0000000

LOEWDIN ATOMIC CHARGES AND SPIN POPULATIONS
-------------------------------------------
   0 C :   -0.460922    0.611976
   1 F :    0.152894    0.129162
   2 F :    0.154014    0.129431
   3 F :    0.154014    0.129431

  Mayer bond orders larger than 0.100000
B(  0-C ,  1-F ) :   1.0482 B(  0-C ,  2-F ) :   1.0487 B(  0-C ,  3-F ) :   1.0487

Dispersion correction           -0.000105924
FINAL SINGLE POINT ENERGY      -337.613027580673

DIPOLE MOMENT
-------------
                                X             Y             Z
Electronic contribution:     -0.00183       0.00000      -0.19012
Nuclear contribution   :     -0.00018       0.00000       0.09031
                        -----------------------------------------
Total Dipole Moment    :     -0.00201       0.00000      -0.09981
                        -----------------------------------------
Magnitude (a.u.)       :      0.09983
Magnitude (Debye)      :      0.25376

Dispersion correction in the Hessian             ... done   (      0.1 sec)

VIBRATIONAL FREQUENCIES
-----------------------

Scaling factor for frequencies =  1.000000000  (already applied!)

   0:         0.00 cm**-1
   1:         0.00 cm**-1
   2:         0.00 cm**-1
   3:         0.00 cm**-1
   4:         0.00 cm**-1
   5:         0.00 cm**-1
   6:       405.25 cm**-1
   7:       472.08 cm**-1
   8:       472.18 cm**-1
   9:       948.63 cm**-1
  10:      1375.06 cm**-1
  11:      1378.62 cm**-1

IR SPECTRUM
-----------

 Mode   freq       eps      Int      T**2         TX        TY        TZ
       cm**-1   L/(mol*cm) km/mol    a.u.
----------------------------------------------------------------------------
  6:    405.25   0.001087    5.50  0.000837  ( 0.000208  0.000000 -0.028936)
  7:    472.08   0.000555    2.80  0.000367  (-0.019152  0.000003 -0.000152)
  8:    472.18   0.000553    2.79  0.000365  (-0.000003 -0.019110 -0.000000)
  9:    948.63   0.000828    4.18  0.000272  ( 0.000631 -0.000000 -0.016492)
 10:   1375.06   0.071137  359.49  0.016144  ( 0.127059  0.000004  0.000131)
 11:   1378.62   0.071230  359.97  0.016124  ( 0.000004 -0.126979 -0.000000)

--------------------------
THERMOCHEMISTRY AT 298.15K
--------------------------

Temperature         ... 298.15 K
Pressure            ... 1.00 atm
Total Mass          ... 69.00 AMU

Throughout the following assumptions are being made:
  (1) The electronic state is orbitally nondegenerate
      but the spin degeneracy is treated
  (2) There are no thermally accessible electronically excited states
  (3) Hindered rotations indicated by low frequency modes are not
      treated as such but are treated as vibrations and this may
      cause some error
  (4) All equations used are the standard statistical mechanics
      equations for an ideal gas
  (5) All vibrations are strictly harmonic

freq.     405.25  E(vib)   ...       0.19
freq.     472.08  E(vib)   ...       0.15
freq.     472.18  E(vib)   ...       0.15
freq.     948.63  E(vib)   ...       0.03
freq.    1375.06  E(vib)   ...       0.01
freq.    1378.62  E(vib)   ...       0.01

------------
INNER ENERGY
------------

The inner energy is: U= E(el) + E(ZPE) + E(vib) + E(rot) + E(trans)
    E(el)   - is the total energy from the electronic structure calculation
              = E(kin-el) + E(nuc-el) + E(el-el) + E(nuc-nuc)
    E(ZPE)  - the the zero temperature vibrational energy from the frequency calculation
    E(vib)  - the the finite temperature correction to E(ZPE) due to population
              of excited vibrational states
    E(rot)  - is the rotational thermal energy
    E(trans)- is the translational thermal energy

Summary of contributions to the inner energy U:
Electronic energy                ...   -337.61302758 Eh
Zero point energy                ...      0.01150887 Eh       7.22 kcal/mol
Thermal vibrational correction   ...      0.00085669 Eh       0.54 kcal/mol
Thermal rotational correction    ...      0.00141627 Eh       0.89 kcal/mol
Thermal translational correction ...      0.00141627 Eh       0.89 kcal/mol
-----------------------------------------------------------------------
Total thermal energy                   -337.59782948 Eh

Summary of corrections to the electronic energy:
(perhaps to be used in another calculation)
Total thermal correction                  0.00368923 Eh       2.32 kcal/mol
Non-thermal (ZPE) correction              0.01150887 Eh       7.22 kcal/mol
-----------------------------------------------------------------------
Total correction                          0.01519810 Eh       9.54 kcal/mol

--------
ENTHALPY
--------

The enthalpy is H = U + kB*T
                kB is Boltzmann's constant
Total free energy                 ...   -337.59782948 Eh
Thermal Enthalpy correction       ...      0.00094421 Eh       0.59 kcal/mol
-----------------------------------------------------------------------
Total Enthalpy                    ...   -337.59688527 Eh

Note: Rotational entropy computed according to Herzberg
Infrared and Raman Spectra, Chapter V,1, Van Nostrand Reinhold, 1945
Point Group:  Cs, Symmetry Number:   1
Rotational constants in cm-1:     0.350381     0.349993     0.176360

Vibrational entropy computed according to the QRRHO of S. Grimme
Chem.Eur.J. 2012 18 9955

-------
ENTROPY
-------

The entropy contributions are T*S = T*(S(el)+S(vib)+S(rot)+S(trans))
     S(el)   - electronic entropy
     S(vib)  - vibrational entropy
     S(rot)  - rotational entropy
     S(trans)- translational entropy
The entropies will be listed as multiplied by the temperature to get
units of energy

Electronic entropy                ...      0.00065446 Eh      0.41 kcal/mol
Vibrational entropy               ...      0.00121910 Eh      0.76 kcal/mol
Rotational entropy                ...      0.01132071 Eh      7.10 kcal/mol
Translational entropy             ...      0.01834582 Eh     11.51 kcal/mol
-----------------------------------------------------------------------
Final entropy term                ...      0.03154009 Eh     19.79 kcal/mol

In case the symmetry of your molecule has not been determined correctly
or in case you have a reason to use a different symmetry number we print
out the resulting rotational entropy values for sn=1,12 :
 --------------------------------------------------------
|  sn= 1 | S(rot)=       0.01132071 Eh      7.10 kcal/mol|
|  sn= 2 | S(rot)=       0.01066626 Eh      6.69 kcal/mol|
|  sn= 3 | S(rot)=       0.01028342 Eh      6.45 kcal/mol|
|  sn= 4 | S(rot)=       0.01001180 Eh      6.28 kcal/mol|
|  sn= 5 | S(rot)=       0.00980111 Eh      6.15 kcal/mol|
|  sn= 6 | S(rot)=       0.00962897 Eh      6.04 kcal/mol|
|  sn= 7 | S(rot)=       0.00948342 Eh      5.95 kcal/mol|
|  sn= 8 | S(rot)=       0.00935734 Eh      5.87 kcal/mol|
|  sn= 9 | S(rot)=       0.00924614 Eh      5.80 kcal/mol|
|  sn=10 | S(rot)=       0.00914666 Eh      5.74 kcal/mol|
|  sn=11 | S(rot)=       0.00905667 Eh      5.68 kcal/mol|
|  sn=12 | S(rot)=       0.00897451 Eh      5.63 kcal/mol|
 --------------------------------------------------------

-------------------
GIBBS FREE ENERGY
-------------------

The Gibbs free energy is G = H - T*S

Total enthalpy                    ...   -337.59688527 Eh
Total entropy correction          ...     -0.03154009 Eh    -19.79 kcal/mol
-----------------------------------------------------------------------
Final Gibbs free energy         ...   -337.62842536 Eh

For completeness - the Gibbs free energy minus the electronic energy
G-E(el)                           ...     -0.01539777 Eh     -9.66 kcal/mol

                             ****ORCA TERMINATED NORMALLY****
TOTAL RUN TIME: 0 days 0 hours 1 minutes 40 seconds 591 msec
