                         Program Version 5.0.4 -  RELEASE  -
|  1> ! UKS TightSCF wB97x-D3 def2-TZVPD xyzfile opt freq
|  2>
|  3> # CF3 radical 101.0 degrees fixed
|  4>
|  5> %maxcore 1000
|  6> %pal
|  7> nprocs 18
|  8> end
|  9>
| 10> %geom Constraints
| 11>         { A * 0 * C }
| 12>     end
| 13> end
| 14> * xyz 0 2
| 15> C 0.00 0.00 0.00
| 16> F 1.1716588483 0.0000000000 -0.5970264176
| 17> F -0.5858294241 1.0146863272 -0.5970264176
| 18> F -0.5858294241 -1.0146863272 -0.5970264176
| 19> **                         ****END OF INPUT****
 Total Charge           Charge          ....    0
 Multiplicity           Mult            ....    2
 Number of Electrons    NEL             ....   33
Dispersion correction           -0.000048905
FINAL SINGLE POINT ENERGY      -337.602419800693
Dispersion correction            ... done
Dispersion correction           -0.000056320
FINAL SINGLE POINT ENERGY      -337.604667532239
Dispersion correction            ... done
Dispersion correction           -0.000057592
FINAL SINGLE POINT ENERGY      -337.604710406096
Dispersion correction            ... done
                    ***********************HURRAY********************

CARTESIAN COORDINATES (ANGSTROEM)
---------------------------------
  C     -0.000090   -0.000000    0.009442
  F      1.196485   -0.000000   -0.600204
  F     -0.598197    1.036006   -0.600158
  F     -0.598197   -1.036005   -0.600158

 Multiplicity           Mult            ....    2
 Number of Electrons    NEL             ....   33
 Basis Dimension        Dim             ....  157

ORBITAL ENERGIES
----------------
                 SPIN UP ORBITALS
  NO   OCC          E(Eh)            E(eV)
   0   1.0000     -24.841788      -675.9794
   1   1.0000     -24.841785      -675.9793
   2   1.0000     -24.841694      -675.9769
   3   1.0000     -10.561290      -287.3873
   4   1.0000      -1.467491       -39.9324
   5   1.0000      -1.360869       -37.0311
   6   1.0000      -1.360769       -37.0284
   7   1.0000      -0.838456       -22.8156
   8   1.0000      -0.717927       -19.5358
   9   1.0000      -0.717894       -19.5349
  10   1.0000      -0.697683       -18.9849
  11   1.0000      -0.602162       -16.3857
  12   1.0000      -0.602160       -16.3856
  13   1.0000      -0.546451       -14.8697
  14   1.0000      -0.546410       -14.8686
  15   1.0000      -0.527949       -14.3662
  16   1.0000      -0.440474       -11.9859
  17   0.0000       0.072335         1.9683
  18   0.0000       0.104267         2.8373
  19   0.0000       0.104268         2.8373
  20   0.0000       0.112055         3.0492
  21   0.0000       0.159260         4.3337

                 SPIN DOWN ORBITALS
  NO   OCC          E(Eh)            E(eV)
   0   1.0000     -24.838885      -675.9004
   1   1.0000     -24.838877      -675.9002
   2   1.0000     -24.838787      -675.8978
   3   1.0000     -10.548263      -287.0328
   4   1.0000      -1.458440       -39.6862
   5   1.0000      -1.352120       -36.7931
   6   1.0000      -1.352018       -36.7903
   7   1.0000      -0.818634       -22.2762
   8   1.0000      -0.706701       -19.2303
   9   1.0000      -0.706670       -19.2295
  10   1.0000      -0.657427       -17.8895
  11   1.0000      -0.590262       -16.0619
  12   1.0000      -0.590256       -16.0617
  13   1.0000      -0.539090       -14.6694
  14   1.0000      -0.539048       -14.6682
  15   1.0000      -0.524619       -14.2756
  16   0.0000      -0.089468        -2.4345
  17   0.0000       0.082268         2.2386
  18   0.0000       0.107823         2.9340
  19   0.0000       0.107826         2.9341
  20   0.0000       0.125757         3.4220

MULLIKEN ATOMIC CHARGES AND SPIN POPULATIONS
--------------------------------------------
   0 C :    0.540398    0.775727
   1 F :   -0.180194    0.074781
   2 F :   -0.180102    0.074746
   3 F :   -0.180102    0.074746
Sum of atomic charges         :   -0.0000000

LOEWDIN ATOMIC CHARGES AND SPIN POPULATIONS
-------------------------------------------
   0 C :   -0.267160    0.624953
   1 F :    0.088859    0.125023
   2 F :    0.089150    0.125012
   3 F :    0.089151    0.125012

  Mayer bond orders larger than 0.100000
B(  0-C ,  1-F ) :   1.0581 B(  0-C ,  2-F ) :   1.0582 B(  0-C ,  3-F ) :   1.0582

Dispersion correction           -0.000057716
FINAL SINGLE POINT ENERGY      -337.604710184767

DIPOLE MOMENT
-------------
                                X             Y             Z
Electronic contribution:     -0.00059      -0.00000       0.09775
Nuclear contribution   :     -0.00006      -0.00000       0.29494
                        -----------------------------------------
Total Dipole Moment    :     -0.00065      -0.00000       0.39270
                        -----------------------------------------
Magnitude (a.u.)       :      0.39270
Magnitude (Debye)      :      0.99815

Dispersion correction in the Hessian             ... done   (      0.1 sec)

VIBRATIONAL FREQUENCIES
-----------------------

Scaling factor for frequencies =  1.000000000  (already applied!)

   0:         0.00 cm**-1
   1:         0.00 cm**-1
   2:         0.00 cm**-1
   3:         0.00 cm**-1
   4:         0.00 cm**-1
   5:         0.00 cm**-1
   6:       574.18 cm**-1
   7:       575.00 cm**-1
   8:       773.58 cm**-1
   9:      1088.58 cm**-1
  10:      1089.60 cm**-1
  11:      1102.08 cm**-1

IR SPECTRUM
-----------

 Mode   freq       eps      Int      T**2         TX        TY        TZ
       cm**-1   L/(mol*cm) km/mol    a.u.
----------------------------------------------------------------------------
  6:    574.18   0.000295    1.49  0.000161  (-0.012671  0.000000 -0.000074)
  7:    575.00   0.000292    1.48  0.000158  (-0.000000 -0.012587 -0.000000)
  8:    773.58   0.002577   13.02  0.001040  (-0.000104 -0.000000 -0.032243)
  9:   1088.58   0.061799  312.31  0.017716  ( 0.133084 -0.000093 -0.002173)
 10:   1089.60   0.061849  312.56  0.017714  (-0.000093 -0.133093  0.000004)
 11:   1102.08   0.009422   47.61  0.002668  (-0.005538 -0.000005 -0.051353)

--------------------------
THERMOCHEMISTRY AT 298.15K
--------------------------

Temperature         ... 298.15 K
Pressure            ... 1.00 atm
Total Mass          ... 69.00 AMU

Throughout the following assumptions are being made:
  (1) The electronic state is orbitally nondegenerate
      but the spin degeneracy is treated
  (2) There are no thermally accessible electronically excited states
  (3) Hindered rotations indicated by low frequency modes are not
      treated as such but are treated as vibrations and this may
      cause some error
  (4) All equations used are the standard statistical mechanics
      equations for an ideal gas
  (5) All vibrations are strictly harmonic

freq.     574.18  E(vib)   ...       0.11
freq.     575.00  E(vib)   ...       0.11
freq.     773.58  E(vib)   ...       0.05
freq.    1088.58  E(vib)   ...       0.02
freq.    1089.60  E(vib)   ...       0.02
freq.    1102.08  E(vib)   ...       0.02

------------
INNER ENERGY
------------

The inner energy is: U= E(el) + E(ZPE) + E(vib) + E(rot) + E(trans)
    E(el)   - is the total energy from the electronic structure calculation
              = E(kin-el) + E(nuc-el) + E(el-el) + E(nuc-nuc)
    E(ZPE)  - the the zero temperature vibrational energy from the frequency calculation
    E(vib)  - the the finite temperature correction to E(ZPE) due to population
              of excited vibrational states
    E(rot)  - is the rotational thermal energy
    E(trans)- is the translational thermal energy

Summary of contributions to the inner energy U:
Electronic energy                ...   -337.60471018 Eh
Zero point energy                ...      0.01185335 Eh       7.44 kcal/mol
Thermal vibrational correction   ...      0.00051221 Eh       0.32 kcal/mol
Thermal rotational correction    ...      0.00141627 Eh       0.89 kcal/mol
Thermal translational correction ...      0.00141627 Eh       0.89 kcal/mol
-----------------------------------------------------------------------
Total thermal energy                   -337.58951208 Eh

Summary of corrections to the electronic energy:
(perhaps to be used in another calculation)
Total thermal correction                  0.00334475 Eh       2.10 kcal/mol
Non-thermal (ZPE) correction              0.01185335 Eh       7.44 kcal/mol
-----------------------------------------------------------------------
Total correction                          0.01519810 Eh       9.54 kcal/mol

--------
ENTHALPY
--------

The enthalpy is H = U + kB*T
                kB is Boltzmann's constant
Total free energy                 ...   -337.58951208 Eh
Thermal Enthalpy correction       ...      0.00094421 Eh       0.59 kcal/mol
-----------------------------------------------------------------------
Total Enthalpy                    ...   -337.58856787 Eh

Note: Rotational entropy computed according to Herzberg
Infrared and Raman Spectra, Chapter V,1, Van Nostrand Reinhold, 1945
Point Group:  Cs, Symmetry Number:   1
Rotational constants in cm-1:     0.379095     0.378991     0.206652

Vibrational entropy computed according to the QRRHO of S. Grimme
Chem.Eur.J. 2012 18 9955

-------
ENTROPY
-------

The entropy contributions are T*S = T*(S(el)+S(vib)+S(rot)+S(trans))
     S(el)   - electronic entropy
     S(vib)  - vibrational entropy
     S(rot)  - rotational entropy
     S(trans)- translational entropy
The entropies will be listed as multiplied by the temperature to get
units of energy

Electronic entropy                ...      0.00065446 Eh      0.41 kcal/mol
Vibrational entropy               ...      0.00067209 Eh      0.42 kcal/mol
Rotational entropy                ...      0.01117112 Eh      7.01 kcal/mol
Translational entropy             ...      0.01834582 Eh     11.51 kcal/mol
-----------------------------------------------------------------------
Final entropy term                ...      0.03084349 Eh     19.35 kcal/mol

In case the symmetry of your molecule has not been determined correctly
or in case you have a reason to use a different symmetry number we print
out the resulting rotational entropy values for sn=1,12 :
 --------------------------------------------------------
|  sn= 1 | S(rot)=       0.01117112 Eh      7.01 kcal/mol|
|  sn= 2 | S(rot)=       0.01051666 Eh      6.60 kcal/mol|
|  sn= 3 | S(rot)=       0.01013383 Eh      6.36 kcal/mol|
|  sn= 4 | S(rot)=       0.00986221 Eh      6.19 kcal/mol|
|  sn= 5 | S(rot)=       0.00965152 Eh      6.06 kcal/mol|
|  sn= 6 | S(rot)=       0.00947937 Eh      5.95 kcal/mol|
|  sn= 7 | S(rot)=       0.00933383 Eh      5.86 kcal/mol|
|  sn= 8 | S(rot)=       0.00920775 Eh      5.78 kcal/mol|
|  sn= 9 | S(rot)=       0.00909654 Eh      5.71 kcal/mol|
|  sn=10 | S(rot)=       0.00899706 Eh      5.65 kcal/mol|
|  sn=11 | S(rot)=       0.00890707 Eh      5.59 kcal/mol|
|  sn=12 | S(rot)=       0.00882492 Eh      5.54 kcal/mol|
 --------------------------------------------------------

-------------------
GIBBS FREE ENERGY
-------------------

The Gibbs free energy is G = H - T*S

Total enthalpy                    ...   -337.58856787 Eh
Total entropy correction          ...     -0.03084349 Eh    -19.35 kcal/mol
-----------------------------------------------------------------------
Final Gibbs free energy         ...   -337.61941136 Eh

For completeness - the Gibbs free energy minus the electronic energy
G-E(el)                           ...     -0.01470118 Eh     -9.23 kcal/mol

                             ****ORCA TERMINATED NORMALLY****
TOTAL RUN TIME: 0 days 0 hours 2 minutes 29 seconds 560 msec
