                         Program Version 5.0.4 -  RELEASE  -
|  1> ! UKS TightSCF wB97x-D3 def2-TZVPD xyzfile opt freq
|  2>
|  3> # CF3 radical 110.0 degrees fixed
|  4>
|  5> %maxcore 1000
|  6> %pal
|  7> nprocs 18
|  8> end
|  9>
| 10> %geom Constraints
| 11>         { A * 0 * C }
| 12>     end
| 13> end
| 14> * xyz 0 2
| 15> C 0.00 0.00 0.00
| 16> F 1.2438260281 0.0000000000 -0.4267573219
| 17> F -0.6219130141 1.0771849382 -0.4267573219
| 18> F -0.6219130141 -1.0771849382 -0.4267573219
| 19> **                         ****END OF INPUT****
 Total Charge           Charge          ....    0
 Multiplicity           Mult            ....    2
 Number of Electrons    NEL             ....   33
Dispersion correction           -0.000077794
FINAL SINGLE POINT ENERGY      -337.632125275965
Dispersion correction            ... done
Dispersion correction           -0.000078684
FINAL SINGLE POINT ENERGY      -337.632142626967
Dispersion correction            ... done
Dispersion correction           -0.000078883
FINAL SINGLE POINT ENERGY      -337.632143402378
Dispersion correction            ... done
                    ***********************HURRAY********************

CARTESIAN COORDINATES (ANGSTROEM)
---------------------------------
  C      0.000214   -0.000000    0.000570
  F      1.245726   -0.000000   -0.426898
  F     -0.622970    1.079315   -0.426972
  F     -0.622970   -1.079315   -0.426972

 Multiplicity           Mult            ....    2
 Number of Electrons    NEL             ....   33
 Basis Dimension        Dim             ....  157

ORBITAL ENERGIES
----------------
                 SPIN UP ORBITALS
  NO   OCC          E(Eh)            E(eV)
   0   1.0000     -24.852232      -676.2636
   1   1.0000     -24.851983      -676.2568
   2   1.0000     -24.851978      -676.2567
   3   1.0000     -10.542943      -286.8881
   4   1.0000      -1.471124       -40.0313
   5   1.0000      -1.381410       -37.5901
   6   1.0000      -1.381139       -37.5827
   7   1.0000      -0.839056       -22.8319
   8   1.0000      -0.732413       -19.9300
   9   1.0000      -0.732342       -19.9280
  10   1.0000      -0.701289       -19.0830
  11   1.0000      -0.607111       -16.5203
  12   1.0000      -0.607100       -16.5200
  13   1.0000      -0.570451       -15.5228
  14   1.0000      -0.570364       -15.5204
  15   1.0000      -0.545351       -14.8397
  16   1.0000      -0.383209       -10.4277
  17   0.0000       0.070605         1.9213
  18   0.0000       0.104300         2.8381
  19   0.0000       0.104310         2.8384
  20   0.0000       0.113998         3.1021
  21   0.0000       0.158957         4.3254

                 SPIN DOWN ORBITALS
  NO   OCC          E(Eh)            E(eV)
   0   1.0000     -24.849239      -676.1822
   1   1.0000     -24.848994      -676.1755
   2   1.0000     -24.848983      -676.1752
   3   1.0000     -10.530092      -286.5384
   4   1.0000      -1.461293       -39.7638
   5   1.0000      -1.372807       -37.3560
   6   1.0000      -1.372536       -37.3486
   7   1.0000      -0.820793       -22.3349
   8   1.0000      -0.722017       -19.6471
   9   1.0000      -0.721941       -19.6450
  10   1.0000      -0.662915       -18.0388
  11   1.0000      -0.596063       -16.2197
  12   1.0000      -0.596037       -16.2190
  13   1.0000      -0.561447       -15.2778
  14   1.0000      -0.561338       -15.2748
  15   1.0000      -0.542074       -14.7506
  16   0.0000      -0.030781        -0.8376
  17   0.0000       0.082021         2.2319
  18   0.0000       0.107472         2.9245
  19   0.0000       0.107485         2.9248
  20   0.0000       0.130199         3.5429

MULLIKEN ATOMIC CHARGES AND SPIN POPULATIONS
--------------------------------------------
   0 C :    0.536011    0.808596
   1 F :   -0.178468    0.063799
   2 F :   -0.178772    0.063802
   3 F :   -0.178771    0.063802
Sum of atomic charges         :   -0.0000000

LOEWDIN ATOMIC CHARGES AND SPIN POPULATIONS
-------------------------------------------
   0 C :   -0.396298    0.615992
   1 F :    0.132629    0.128057
   2 F :    0.131835    0.127976
   3 F :    0.131835    0.127976

  Mayer bond orders larger than 0.100000
B(  0-C ,  1-F ) :   1.0521 B(  0-C ,  2-F ) :   1.0516 B(  0-C ,  3-F ) :   1.0516

Dispersion correction           -0.000078885
FINAL SINGLE POINT ENERGY      -337.632143246877

DIPOLE MOMENT
-------------
                                X             Y             Z
Electronic contribution:      0.00136      -0.00000      -0.06038
Nuclear contribution   :      0.00014      -0.00000       0.20684
                        -----------------------------------------
Total Dipole Moment    :      0.00150      -0.00000       0.14646
                        -----------------------------------------
Magnitude (a.u.)       :      0.14646
Magnitude (Debye)      :      0.37228

Dispersion correction in the Hessian             ... done   (      0.1 sec)

VIBRATIONAL FREQUENCIES
-----------------------

Scaling factor for frequencies =  1.000000000  (already applied!)

   0:         0.00 cm**-1
   1:         0.00 cm**-1
   2:         0.00 cm**-1
   3:         0.00 cm**-1
   4:         0.00 cm**-1
   5:         0.00 cm**-1
   6:       520.20 cm**-1
   7:       520.37 cm**-1
   8:       718.51 cm**-1
   9:      1108.29 cm**-1
  10:      1248.78 cm**-1
  11:      1251.03 cm**-1

IR SPECTRUM
-----------

 Mode   freq       eps      Int      T**2         TX        TY        TZ
       cm**-1   L/(mol*cm) km/mol    a.u.
----------------------------------------------------------------------------
  6:    520.20   0.000299    1.51  0.000179  (-0.013392  0.000003  0.000009)
  7:    520.37   0.000296    1.49  0.000177  ( 0.000003  0.013317 -0.000000)
  8:    718.51   0.002370   11.97  0.001029  (-0.000127  0.000000  0.032080)
  9:   1108.29   0.008130   41.09  0.002289  (-0.001168  0.000000 -0.047831)
 10:   1248.78   0.070983  358.72  0.017738  ( 0.000016 -0.133185 -0.000000)
 11:   1251.03   0.071033  358.97  0.017719  ( 0.133112  0.000016 -0.000311)

--------------------------
THERMOCHEMISTRY AT 298.15K
--------------------------

Temperature         ... 298.15 K
Pressure            ... 1.00 atm
Total Mass          ... 69.00 AMU

Throughout the following assumptions are being made:
  (1) The electronic state is orbitally nondegenerate
      but the spin degeneracy is treated
  (2) There are no thermally accessible electronically excited states
  (3) Hindered rotations indicated by low frequency modes are not
      treated as such but are treated as vibrations and this may
      cause some error
  (4) All equations used are the standard statistical mechanics
      equations for an ideal gas
  (5) All vibrations are strictly harmonic

freq.     520.20  E(vib)   ...       0.13
freq.     520.37  E(vib)   ...       0.13
freq.     718.51  E(vib)   ...       0.07
freq.    1108.29  E(vib)   ...       0.02
freq.    1248.78  E(vib)   ...       0.01
freq.    1251.03  E(vib)   ...       0.01

------------
INNER ENERGY
------------

The inner energy is: U= E(el) + E(ZPE) + E(vib) + E(rot) + E(trans)
    E(el)   - is the total energy from the electronic structure calculation
              = E(kin-el) + E(nuc-el) + E(el-el) + E(nuc-nuc)
    E(ZPE)  - the the zero temperature vibrational energy from the frequency calculation
    E(vib)  - the the finite temperature correction to E(ZPE) due to population
              of excited vibrational states
    E(rot)  - is the rotational thermal energy
    E(trans)- is the translational thermal energy

Summary of contributions to the inner energy U:
Electronic energy                ...   -337.63214325 Eh
Zero point energy                ...      0.01222732 Eh       7.67 kcal/mol
Thermal vibrational correction   ...      0.00057610 Eh       0.36 kcal/mol
Thermal rotational correction    ...      0.00141627 Eh       0.89 kcal/mol
Thermal translational correction ...      0.00141627 Eh       0.89 kcal/mol
-----------------------------------------------------------------------
Total thermal energy                   -337.61650728 Eh

Summary of corrections to the electronic energy:
(perhaps to be used in another calculation)
Total thermal correction                  0.00340864 Eh       2.14 kcal/mol
Non-thermal (ZPE) correction              0.01222732 Eh       7.67 kcal/mol
-----------------------------------------------------------------------
Total correction                          0.01563596 Eh       9.81 kcal/mol

--------
ENTHALPY
--------

The enthalpy is H = U + kB*T
                kB is Boltzmann's constant
Total free energy                 ...   -337.61650728 Eh
Thermal Enthalpy correction       ...      0.00094421 Eh       0.59 kcal/mol
-----------------------------------------------------------------------
Total Enthalpy                    ...   -337.61556307 Eh

Note: Rotational entropy computed according to Herzberg
Infrared and Raman Spectra, Chapter V,1, Van Nostrand Reinhold, 1945
Point Group:  Cs, Symmetry Number:   1
Rotational constants in cm-1:     0.366146     0.365870     0.190503

Vibrational entropy computed according to the QRRHO of S. Grimme
Chem.Eur.J. 2012 18 9955

-------
ENTROPY
-------

The entropy contributions are T*S = T*(S(el)+S(vib)+S(rot)+S(trans))
     S(el)   - electronic entropy
     S(vib)  - vibrational entropy
     S(rot)  - rotational entropy
     S(trans)- translational entropy
The entropies will be listed as multiplied by the temperature to get
units of energy

Electronic entropy                ...      0.00065446 Eh      0.41 kcal/mol
Vibrational entropy               ...      0.00077593 Eh      0.49 kcal/mol
Rotational entropy                ...      0.01124257 Eh      7.05 kcal/mol
Translational entropy             ...      0.01834582 Eh     11.51 kcal/mol
-----------------------------------------------------------------------
Final entropy term                ...      0.03101878 Eh     19.46 kcal/mol

In case the symmetry of your molecule has not been determined correctly
or in case you have a reason to use a different symmetry number we print
out the resulting rotational entropy values for sn=1,12 :
 --------------------------------------------------------
|  sn= 1 | S(rot)=       0.01124257 Eh      7.05 kcal/mol|
|  sn= 2 | S(rot)=       0.01058812 Eh      6.64 kcal/mol|
|  sn= 3 | S(rot)=       0.01020528 Eh      6.40 kcal/mol|
|  sn= 4 | S(rot)=       0.00993366 Eh      6.23 kcal/mol|
|  sn= 5 | S(rot)=       0.00972297 Eh      6.10 kcal/mol|
|  sn= 6 | S(rot)=       0.00955083 Eh      5.99 kcal/mol|
|  sn= 7 | S(rot)=       0.00940528 Eh      5.90 kcal/mol|
|  sn= 8 | S(rot)=       0.00927920 Eh      5.82 kcal/mol|
|  sn= 9 | S(rot)=       0.00916800 Eh      5.75 kcal/mol|
|  sn=10 | S(rot)=       0.00906852 Eh      5.69 kcal/mol|
|  sn=11 | S(rot)=       0.00897853 Eh      5.63 kcal/mol|
|  sn=12 | S(rot)=       0.00889637 Eh      5.58 kcal/mol|
 --------------------------------------------------------

-------------------
GIBBS FREE ENERGY
-------------------

The Gibbs free energy is G = H - T*S

Total enthalpy                    ...   -337.61556307 Eh
Total entropy correction          ...     -0.03101878 Eh    -19.46 kcal/mol
-----------------------------------------------------------------------
Final Gibbs free energy         ...   -337.64658185 Eh

For completeness - the Gibbs free energy minus the electronic energy
G-E(el)                           ...     -0.01443860 Eh     -9.06 kcal/mol

                             ****ORCA TERMINATED NORMALLY****
TOTAL RUN TIME: 0 days 0 hours 2 minutes 15 seconds 660 msec
