                         Program Version 5.0.4 -  RELEASE  -
|  1> ! UKS TightSCF wB97x-D3 def2-TZVPD xyzfile opt freq
|  2>
|  3> # CF3 radical 107.5 degrees fixed
|  4>
|  5> %maxcore 1000
|  6> %pal
|  7> nprocs 18
|  8> end
|  9>
| 10> %geom Constraints
| 11>         { A * 0 * C }
| 12>     end
| 13> end
| 14> * xyz 0 2
| 15> C 0.00 0.00 0.00
| 16> F 1.2245306546 0.0000000000 -0.4793221004
| 17> F -0.6122653273 1.0604746546 -0.4793221004
| 18> F -0.6122653273 -1.0604746546 -0.4793221004
| 19> **                         ****END OF INPUT****
 Total Charge           Charge          ....    0
 Multiplicity           Mult            ....    2
 Number of Electrons    NEL             ....   33
Dispersion correction           -0.000068927
FINAL SINGLE POINT ENERGY      -337.628177247743
Dispersion correction            ... done
Dispersion correction           -0.000071614
FINAL SINGLE POINT ENERGY      -337.628356287579
Dispersion correction            ... done
Dispersion correction           -0.000072169
FINAL SINGLE POINT ENERGY      -337.628362349615
Dispersion correction            ... done
                    ***********************HURRAY********************

CARTESIAN COORDINATES (ANGSTROEM)
---------------------------------
  C      0.000001    0.000000    0.002115
  F      1.231735    0.000000   -0.480027
  F     -0.615868    1.066715   -0.480027
  F     -0.615868   -1.066715   -0.480027

 Multiplicity           Mult            ....    2
 Number of Electrons    NEL             ....   33
 Basis Dimension        Dim             ....  157

ORBITAL ENERGIES
----------------
                 SPIN UP ORBITALS
  NO   OCC          E(Eh)            E(eV)
   0   1.0000     -24.849394      -676.1864
   1   1.0000     -24.849392      -676.1863
   2   1.0000     -24.849385      -676.1861
   3   1.0000     -10.547946      -287.0242
   4   1.0000      -1.471047       -40.0292
   5   1.0000      -1.376323       -37.4516
   6   1.0000      -1.376319       -37.4515
   7   1.0000      -0.839033       -22.8312
   8   1.0000      -0.729107       -19.8400
   9   1.0000      -0.729101       -19.8399
  10   1.0000      -0.700695       -19.0669
  11   1.0000      -0.606218       -16.4960
  12   1.0000      -0.606217       -16.4960
  13   1.0000      -0.564177       -15.3520
  14   1.0000      -0.564165       -15.3517
  15   1.0000      -0.540926       -14.7193
  16   1.0000      -0.400772       -10.9056
  17   0.0000       0.071514         1.9460
  18   0.0000       0.104890         2.8542
  19   0.0000       0.104891         2.8542
  20   0.0000       0.113252         3.0817
  21   0.0000       0.160179         4.3587

                 SPIN DOWN ORBITALS
  NO   OCC          E(Eh)            E(eV)
   0   1.0000     -24.846428      -676.1057
   1   1.0000     -24.846425      -676.1056
   2   1.0000     -24.846411      -676.1052
   3   1.0000     -10.535046      -286.6732
   4   1.0000      -1.461475       -39.7688
   5   1.0000      -1.367666       -37.2161
   6   1.0000      -1.367662       -37.2160
   7   1.0000      -0.820551       -22.3283
   8   1.0000      -0.718434       -19.5496
   9   1.0000      -0.718428       -19.5494
  10   1.0000      -0.661756       -18.0073
  11   1.0000      -0.594877       -16.1874
  12   1.0000      -0.594874       -16.1874
  13   1.0000      -0.555779       -15.1235
  14   1.0000      -0.555768       -15.1232
  15   1.0000      -0.537635       -14.6298
  16   0.0000      -0.048333        -1.3152
  17   0.0000       0.082234         2.2377
  18   0.0000       0.107890         2.9358
  19   0.0000       0.107890         2.9358
  20   0.0000       0.128898         3.5075

MULLIKEN ATOMIC CHARGES AND SPIN POPULATIONS
--------------------------------------------
   0 C :    0.540552    0.798491
   1 F :   -0.180136    0.067163
   2 F :   -0.180208    0.067173
   3 F :   -0.180208    0.067173
Sum of atomic charges         :    0.0000000

LOEWDIN ATOMIC CHARGES AND SPIN POPULATIONS
-------------------------------------------
   0 C :   -0.366041    0.618787
   1 F :    0.122014    0.127084
   2 F :    0.122014    0.127065
   3 F :    0.122014    0.127065

  Mayer bond orders larger than 0.100000
B(  0-C ,  1-F ) :   1.0533 B(  0-C ,  2-F ) :   1.0532 B(  0-C ,  3-F ) :   1.0532

Dispersion correction           -0.000072183
FINAL SINGLE POINT ENERGY      -337.628362377102

DIPOLE MOMENT
-------------
                                X             Y             Z
Electronic contribution:     -0.00002       0.00000      -0.01538
Nuclear contribution   :      0.00000       0.00000       0.23327
                        -----------------------------------------
Total Dipole Moment    :     -0.00002       0.00000       0.21789
                        -----------------------------------------
Magnitude (a.u.)       :      0.21789
Magnitude (Debye)      :      0.55383

Dispersion correction in the Hessian             ... done   (      0.1 sec)

VIBRATIONAL FREQUENCIES
-----------------------

Scaling factor for frequencies =  1.000000000  (already applied!)

   0:         0.00 cm**-1
   1:         0.00 cm**-1
   2:         0.00 cm**-1
   3:         0.00 cm**-1
   4:         0.00 cm**-1
   5:         0.00 cm**-1
   6:       535.53 cm**-1
   7:       535.81 cm**-1
   8:       734.72 cm**-1
   9:      1118.16 cm**-1
  10:      1209.44 cm**-1
  11:      1209.80 cm**-1

IR SPECTRUM
-----------

 Mode   freq       eps      Int      T**2         TX        TY        TZ
       cm**-1   L/(mol*cm) km/mol    a.u.
----------------------------------------------------------------------------
  6:    535.53   0.000296    1.50  0.000172  ( 0.000004  0.013132 -0.000000)
  7:    535.81   0.000295    1.49  0.000172  (-0.013115  0.000004  0.000069)
  8:    734.72   0.002376   12.01  0.001009  ( 0.000024 -0.000000 -0.031771)
  9:   1118.16   0.008849   44.72  0.002470  ( 0.000083 -0.000000 -0.049697)
 10:   1209.44   0.068803  347.70  0.017753  ( 0.133239  0.000050  0.000077)
 11:   1209.80   0.068737  347.37  0.017730  ( 0.000050 -0.133156  0.000000)

--------------------------
THERMOCHEMISTRY AT 298.15K
--------------------------

Temperature         ... 298.15 K
Pressure            ... 1.00 atm
Total Mass          ... 69.00 AMU

Throughout the following assumptions are being made:
  (1) The electronic state is orbitally nondegenerate
      but the spin degeneracy is treated
  (2) There are no thermally accessible electronically excited states
  (3) Hindered rotations indicated by low frequency modes are not
      treated as such but are treated as vibrations and this may
      cause some error
  (4) All equations used are the standard statistical mechanics
      equations for an ideal gas
  (5) All vibrations are strictly harmonic

freq.     535.53  E(vib)   ...       0.12
freq.     535.81  E(vib)   ...       0.12
freq.     734.72  E(vib)   ...       0.06
freq.    1118.16  E(vib)   ...       0.01
freq.    1209.44  E(vib)   ...       0.01
freq.    1209.80  E(vib)   ...       0.01

------------
INNER ENERGY
------------

The inner energy is: U= E(el) + E(ZPE) + E(vib) + E(rot) + E(trans)
    E(el)   - is the total energy from the electronic structure calculation
              = E(kin-el) + E(nuc-el) + E(el-el) + E(nuc-nuc)
    E(ZPE)  - the the zero temperature vibrational energy from the frequency calculation
    E(vib)  - the the finite temperature correction to E(ZPE) due to population
              of excited vibrational states
    E(rot)  - is the rotational thermal energy
    E(trans)- is the translational thermal energy

Summary of contributions to the inner energy U:
Electronic energy                ...   -337.62836238 Eh
Zero point energy                ...      0.01217330 Eh       7.64 kcal/mol
Thermal vibrational correction   ...      0.00055302 Eh       0.35 kcal/mol
Thermal rotational correction    ...      0.00141627 Eh       0.89 kcal/mol
Thermal translational correction ...      0.00141627 Eh       0.89 kcal/mol
-----------------------------------------------------------------------
Total thermal energy                   -337.61280351 Eh

Summary of corrections to the electronic energy:
(perhaps to be used in another calculation)
Total thermal correction                  0.00338557 Eh       2.12 kcal/mol
Non-thermal (ZPE) correction              0.01217330 Eh       7.64 kcal/mol
-----------------------------------------------------------------------
Total correction                          0.01555887 Eh       9.76 kcal/mol

--------
ENTHALPY
--------

The enthalpy is H = U + kB*T
                kB is Boltzmann's constant
Total free energy                 ...   -337.61280351 Eh
Thermal Enthalpy correction       ...      0.00094421 Eh       0.59 kcal/mol
-----------------------------------------------------------------------
Total Enthalpy                    ...   -337.61185930 Eh

Note: Rotational entropy computed according to Herzberg
Infrared and Raman Spectra, Chapter V,1, Van Nostrand Reinhold, 1945
Point Group:  C3v, Symmetry Number:   3
Rotational constants in cm-1:     0.370164     0.370164     0.194954

Vibrational entropy computed according to the QRRHO of S. Grimme
Chem.Eur.J. 2012 18 9955

-------
ENTROPY
-------

The entropy contributions are T*S = T*(S(el)+S(vib)+S(rot)+S(trans))
     S(el)   - electronic entropy
     S(vib)  - vibrational entropy
     S(rot)  - rotational entropy
     S(trans)- translational entropy
The entropies will be listed as multiplied by the temperature to get
units of energy

Electronic entropy                ...      0.00065446 Eh      0.41 kcal/mol
Vibrational entropy               ...      0.00073934 Eh      0.46 kcal/mol
Rotational entropy                ...      0.01018372 Eh      6.39 kcal/mol
Translational entropy             ...      0.01834582 Eh     11.51 kcal/mol
-----------------------------------------------------------------------
Final entropy term                ...      0.02992333 Eh     18.78 kcal/mol

In case the symmetry of your molecule has not been determined correctly
or in case you have a reason to use a different symmetry number we print
out the resulting rotational entropy values for sn=1,12 :
 --------------------------------------------------------
|  sn= 1 | S(rot)=       0.01122101 Eh      7.04 kcal/mol|
|  sn= 2 | S(rot)=       0.01056655 Eh      6.63 kcal/mol|
|  sn= 3 | S(rot)=       0.01018372 Eh      6.39 kcal/mol|
|  sn= 4 | S(rot)=       0.00991210 Eh      6.22 kcal/mol|
|  sn= 5 | S(rot)=       0.00970141 Eh      6.09 kcal/mol|
|  sn= 6 | S(rot)=       0.00952926 Eh      5.98 kcal/mol|
|  sn= 7 | S(rot)=       0.00938372 Eh      5.89 kcal/mol|
|  sn= 8 | S(rot)=       0.00925764 Eh      5.81 kcal/mol|
|  sn= 9 | S(rot)=       0.00914643 Eh      5.74 kcal/mol|
|  sn=10 | S(rot)=       0.00904695 Eh      5.68 kcal/mol|
|  sn=11 | S(rot)=       0.00895696 Eh      5.62 kcal/mol|
|  sn=12 | S(rot)=       0.00887481 Eh      5.57 kcal/mol|
 --------------------------------------------------------

-------------------
GIBBS FREE ENERGY
-------------------

The Gibbs free energy is G = H - T*S

Total enthalpy                    ...   -337.61185930 Eh
Total entropy correction          ...     -0.02992333 Eh    -18.78 kcal/mol
-----------------------------------------------------------------------
Final Gibbs free energy         ...   -337.64178263 Eh

For completeness - the Gibbs free energy minus the electronic energy
G-E(el)                           ...     -0.01342025 Eh     -8.42 kcal/mol

                             ****ORCA TERMINATED NORMALLY****
TOTAL RUN TIME: 0 days 0 hours 2 minutes 13 seconds 776 msec
