                         Program Version 5.0.4 -  RELEASE  -
|  1> ! UKS TightSCF wB97x-D3 def2-TZVPD xyzfile opt freq
|  2>
|  3> # CF3 radical 95.0 degrees fixed
|  4>
|  5> %maxcore 1000
|  6> %pal
|  7> nprocs 18
|  8> end
|  9>
| 10> %geom Constraints
| 11>         { A * 0 * C }
| 12>     end
| 13> end
| 14> * xyz 0 2
| 15> C 0.00 0.00 0.00
| 16> F 1.1195049171 0.0000000000 -0.6898795116
| 17> F -0.5597524586 0.9695196979 -0.6898795116
| 18> F -0.5597524586 -0.9695196979 -0.6898795116
| 19> **                         ****END OF INPUT****
 Total Charge           Charge          ....    0
 Multiplicity           Mult            ....    2
 Number of Electrons    NEL             ....   33
Dispersion correction           -0.000034334
FINAL SINGLE POINT ENERGY      -337.558172012629
Dispersion correction            ... done
Dispersion correction           -0.000045363
FINAL SINGLE POINT ENERGY      -337.566909216641
Dispersion correction            ... done
Dispersion correction           -0.000047038
FINAL SINGLE POINT ENERGY      -337.567048267032
Dispersion correction            ... done
Dispersion correction           -0.000047363
FINAL SINGLE POINT ENERGY      -337.567050579447
Dispersion correction            ... done
                    ***********************HURRAY********************

CARTESIAN COORDINATES (ANGSTROEM)
---------------------------------
  C      0.000079    0.000000    0.021314
  F      1.165524    0.000000   -0.696952
  F     -0.582802    1.009521   -0.697001
  F     -0.582802   -1.009521   -0.697001

 Multiplicity           Mult            ....    2
 Number of Electrons    NEL             ....   33
 Basis Dimension        Dim             ....  157

ORBITAL ENERGIES
----------------
                 SPIN UP ORBITALS
  NO   OCC          E(Eh)            E(eV)
   0   1.0000     -24.834122      -675.7708
   1   1.0000     -24.834036      -675.7685
   2   1.0000     -24.834035      -675.7684
   3   1.0000     -10.574741      -287.7533
   4   1.0000      -1.460344       -39.7380
   5   1.0000      -1.344005       -36.5722
   6   1.0000      -1.343935       -36.5703
   7   1.0000      -0.837773       -22.7970
   8   1.0000      -0.704566       -19.1722
   9   1.0000      -0.704560       -19.1720
  10   1.0000      -0.693454       -18.8698
  11   1.0000      -0.596827       -16.2405
  12   1.0000      -0.596820       -16.2403
  13   1.0000      -0.528329       -14.3766
  14   1.0000      -0.528302       -14.3758
  15   1.0000      -0.514468       -13.9994
  16   1.0000      -0.471825       -12.8390
  17   0.0000       0.071983         1.9588
  18   0.0000       0.098332         2.6757
  19   0.0000       0.098344         2.6761
  20   0.0000       0.111422         3.0320
  21   0.0000       0.146912         3.9977

                 SPIN DOWN ORBITALS
  NO   OCC          E(Eh)            E(eV)
   0   1.0000     -24.831254      -675.6928
   1   1.0000     -24.831170      -675.6905
   2   1.0000     -24.831163      -675.6903
   3   1.0000     -10.561658      -287.3973
   4   1.0000      -1.451578       -39.4995
   5   1.0000      -1.335136       -36.3309
   6   1.0000      -1.335062       -36.3289
   7   1.0000      -0.815768       -22.1982
   8   1.0000      -0.692946       -18.8560
   9   1.0000      -0.692939       -18.8558
  10   1.0000      -0.652393       -17.7525
  11   1.0000      -0.584332       -15.9005
  12   1.0000      -0.584329       -15.9004
  13   1.0000      -0.521567       -14.1926
  14   1.0000      -0.521540       -14.1918
  15   1.0000      -0.511061       -13.9067
  16   0.0000      -0.123689        -3.3658
  17   0.0000       0.081920         2.2292
  18   0.0000       0.105496         2.8707
  19   0.0000       0.105497         2.8707
  20   0.0000       0.123036         3.3480

MULLIKEN ATOMIC CHARGES AND SPIN POPULATIONS
--------------------------------------------
   0 C :    0.528367    0.755616
   1 F :   -0.175818    0.081504
   2 F :   -0.176276    0.081440
   3 F :   -0.176273    0.081439
Sum of atomic charges         :   -0.0000000

LOEWDIN ATOMIC CHARGES AND SPIN POPULATIONS
-------------------------------------------
   0 C :   -0.152699    0.628102
   1 F :    0.051049    0.123976
   2 F :    0.050825    0.123961
   3 F :    0.050825    0.123961

  Mayer bond orders larger than 0.100000
B(  0-C ,  1-F ) :   1.0602 B(  0-C ,  2-F ) :   1.0597 B(  0-C ,  3-F ) :   1.0597

Dispersion correction           -0.000047371
FINAL SINGLE POINT ENERGY      -337.567050547010

DIPOLE MOMENT
-------------
                                X             Y             Z
Electronic contribution:      0.00045       0.00000       0.19791
Nuclear contribution   :      0.00005       0.00000       0.34753
                        -----------------------------------------
Total Dipole Moment    :      0.00051       0.00000       0.54543
                        -----------------------------------------
Magnitude (a.u.)       :      0.54543
Magnitude (Debye)      :      1.38638

Dispersion correction in the Hessian             ... done   (      0.1 sec)

VIBRATIONAL FREQUENCIES
-----------------------

Scaling factor for frequencies =  1.000000000  (already applied!)

   0:         0.00 cm**-1
   1:         0.00 cm**-1
   2:         0.00 cm**-1
   3:         0.00 cm**-1
   4:         0.00 cm**-1
   5:         0.00 cm**-1
   6:       608.97 cm**-1
   7:       609.53 cm**-1
   8:       808.10 cm**-1
   9:       957.15 cm**-1
  10:       958.20 cm**-1
  11:      1044.89 cm**-1

IR SPECTRUM
-----------

 Mode   freq       eps      Int      T**2         TX        TY        TZ
       cm**-1   L/(mol*cm) km/mol    a.u.
----------------------------------------------------------------------------
  6:    608.97   0.000295    1.49  0.000151  ( 0.012303  0.000000 -0.000032)
  7:    609.53   0.000294    1.49  0.000151  (-0.000000  0.012272 -0.000000)
  8:    808.10   0.003365   17.01  0.001300  ( 0.000199  0.000000  0.036049)
  9:    957.15   0.054901  277.45  0.017900  (-0.000045 -0.133790 -0.000000)
 10:    958.20   0.054937  277.63  0.017892  ( 0.133760 -0.000045  0.000160)
 11:   1044.89   0.008094   40.91  0.002417  ( 0.000561  0.000000 -0.049164)

--------------------------
THERMOCHEMISTRY AT 298.15K
--------------------------

Temperature         ... 298.15 K
Pressure            ... 1.00 atm
Total Mass          ... 69.00 AMU

Throughout the following assumptions are being made:
  (1) The electronic state is orbitally nondegenerate
      but the spin degeneracy is treated
  (2) There are no thermally accessible electronically excited states
  (3) Hindered rotations indicated by low frequency modes are not
      treated as such but are treated as vibrations and this may
      cause some error
  (4) All equations used are the standard statistical mechanics
      equations for an ideal gas
  (5) All vibrations are strictly harmonic

freq.     608.97  E(vib)   ...       0.10
freq.     609.53  E(vib)   ...       0.10
freq.     808.10  E(vib)   ...       0.05
freq.     957.15  E(vib)   ...       0.03
freq.     958.20  E(vib)   ...       0.03
freq.    1044.89  E(vib)   ...       0.02

------------
INNER ENERGY
------------

The inner energy is: U= E(el) + E(ZPE) + E(vib) + E(rot) + E(trans)
    E(el)   - is the total energy from the electronic structure calculation
              = E(kin-el) + E(nuc-el) + E(el-el) + E(nuc-nuc)
    E(ZPE)  - the the zero temperature vibrational energy from the frequency calculation
    E(vib)  - the the finite temperature correction to E(ZPE) due to population
              of excited vibrational states
    E(rot)  - is the rotational thermal energy
    E(trans)- is the translational thermal energy

Summary of contributions to the inner energy U:
Electronic energy                ...   -337.56705055 Eh
Zero point energy                ...      0.01136084 Eh       7.13 kcal/mol
Thermal vibrational correction   ...      0.00050369 Eh       0.32 kcal/mol
Thermal rotational correction    ...      0.00141627 Eh       0.89 kcal/mol
Thermal translational correction ...      0.00141627 Eh       0.89 kcal/mol
-----------------------------------------------------------------------
Total thermal energy                   -337.55235348 Eh

Summary of corrections to the electronic energy:
(perhaps to be used in another calculation)
Total thermal correction                  0.00333623 Eh       2.09 kcal/mol
Non-thermal (ZPE) correction              0.01136084 Eh       7.13 kcal/mol
-----------------------------------------------------------------------
Total correction                          0.01469706 Eh       9.22 kcal/mol

--------
ENTHALPY
--------

The enthalpy is H = U + kB*T
                kB is Boltzmann's constant
Total free energy                 ...   -337.55235348 Eh
Thermal Enthalpy correction       ...      0.00094421 Eh       0.59 kcal/mol
-----------------------------------------------------------------------
Total Enthalpy                    ...   -337.55140927 Eh

Note: Rotational entropy computed according to Herzberg
Infrared and Raman Spectra, Chapter V,1, Van Nostrand Reinhold, 1945
Point Group:  Cs, Symmetry Number:   1
Rotational constants in cm-1:     0.384598     0.384514     0.217697

Vibrational entropy computed according to the QRRHO of S. Grimme
Chem.Eur.J. 2012 18 9955

-------
ENTROPY
-------

The entropy contributions are T*S = T*(S(el)+S(vib)+S(rot)+S(trans))
     S(el)   - electronic entropy
     S(vib)  - vibrational entropy
     S(rot)  - rotational entropy
     S(trans)- translational entropy
The entropies will be listed as multiplied by the temperature to get
units of energy

Electronic entropy                ...      0.00065446 Eh      0.41 kcal/mol
Vibrational entropy               ...      0.00065092 Eh      0.41 kcal/mol
Rotational entropy                ...      0.01113291 Eh      6.99 kcal/mol
Translational entropy             ...      0.01834582 Eh     11.51 kcal/mol
-----------------------------------------------------------------------
Final entropy term                ...      0.03078410 Eh     19.32 kcal/mol

In case the symmetry of your molecule has not been determined correctly
or in case you have a reason to use a different symmetry number we print
out the resulting rotational entropy values for sn=1,12 :
 --------------------------------------------------------
|  sn= 1 | S(rot)=       0.01113291 Eh      6.99 kcal/mol|
|  sn= 2 | S(rot)=       0.01047845 Eh      6.58 kcal/mol|
|  sn= 3 | S(rot)=       0.01009562 Eh      6.34 kcal/mol|
|  sn= 4 | S(rot)=       0.00982399 Eh      6.16 kcal/mol|
|  sn= 5 | S(rot)=       0.00961330 Eh      6.03 kcal/mol|
|  sn= 6 | S(rot)=       0.00944116 Eh      5.92 kcal/mol|
|  sn= 7 | S(rot)=       0.00929561 Eh      5.83 kcal/mol|
|  sn= 8 | S(rot)=       0.00916954 Eh      5.75 kcal/mol|
|  sn= 9 | S(rot)=       0.00905833 Eh      5.68 kcal/mol|
|  sn=10 | S(rot)=       0.00895885 Eh      5.62 kcal/mol|
|  sn=11 | S(rot)=       0.00886886 Eh      5.57 kcal/mol|
|  sn=12 | S(rot)=       0.00878670 Eh      5.51 kcal/mol|
 --------------------------------------------------------

-------------------
GIBBS FREE ENERGY
-------------------

The Gibbs free energy is G = H - T*S

Total enthalpy                    ...   -337.55140927 Eh
Total entropy correction          ...     -0.03078410 Eh    -19.32 kcal/mol
-----------------------------------------------------------------------
Final Gibbs free energy         ...   -337.58219337 Eh

For completeness - the Gibbs free energy minus the electronic energy
G-E(el)                           ...     -0.01514283 Eh     -9.50 kcal/mol

                             ****ORCA TERMINATED NORMALLY****
TOTAL RUN TIME: 0 days 0 hours 2 minutes 2 seconds 116 msec
