                         Program Version 5.0.4 -  RELEASE  -
|  1> ! UKS TightSCF wB97x-D3 def2-TZVPD xyzfile opt freq
|  2>
|  3> # CF3 radical 105.0 degrees fixed
|  4>
|  5> %maxcore 1000
|  6> %pal
|  7> nprocs 18
|  8> end
|  9>
| 10> %geom Constraints
| 11>         { A * 0 * C }
| 12>     end
| 13> end
| 14> * xyz 0 2
| 15> C 0.00 0.00 0.00
| 16> F 1.2046524708 0.0000000000 -0.5272925417
| 17> F -0.6023262354 1.0432596425 -0.5272925417
| 18> F -0.6023262354 -1.0432596425 -0.5272925417
| 19> **                         ****END OF INPUT****
 Total Charge           Charge          ....    0
 Multiplicity           Mult            ....    2
 Number of Electrons    NEL             ....   33
Dispersion correction           -0.000060701
FINAL SINGLE POINT ENERGY      -337.620865290031
Dispersion correction            ... done
Dispersion correction           -0.000065247
FINAL SINGLE POINT ENERGY      -337.621475153900
Dispersion correction            ... done
Dispersion correction           -0.000066123
FINAL SINGLE POINT ENERGY      -337.621490798518
Dispersion correction            ... done
                    ***********************HURRAY********************

CARTESIAN COORDINATES (ANGSTROEM)
---------------------------------
  C     -0.000153   -0.000000    0.004340
  F      1.218085   -0.000000   -0.528784
  F     -0.608966    1.054568   -0.528717
  F     -0.608966   -1.054568   -0.528717

 Multiplicity           Mult            ....    2
 Number of Electrons    NEL             ....   33
 Basis Dimension        Dim             ....  157

ORBITAL ENERGIES
----------------
                 SPIN UP ORBITALS
  NO   OCC          E(Eh)            E(eV)
   0   1.0000     -24.846616      -676.1108
   1   1.0000     -24.846611      -676.1107
   2   1.0000     -24.846442      -676.1061
   3   1.0000     -10.552965      -287.1608
   4   1.0000      -1.470204       -40.0063
   5   1.0000      -1.370844       -37.3026
   6   1.0000      -1.370661       -37.2976
   7   1.0000      -0.838867       -22.8267
   8   1.0000      -0.725246       -19.7350
   9   1.0000      -0.725192       -19.7335
  10   1.0000      -0.699749       -19.0411
  11   1.0000      -0.604913       -16.4605
  12   1.0000      -0.604910       -16.4604
  13   1.0000      -0.557636       -15.1740
  14   1.0000      -0.557560       -15.1720
  15   1.0000      -0.536165       -14.5898
  16   1.0000      -0.416917       -11.3449
  17   0.0000       0.072037         1.9602
  18   0.0000       0.105064         2.8589
  19   0.0000       0.105069         2.8591
  20   0.0000       0.112690         3.0665
  21   0.0000       0.160789         4.3753

                 SPIN DOWN ORBITALS
  NO   OCC          E(Eh)            E(eV)
   0   1.0000     -24.843675      -676.0308
   1   1.0000     -24.843666      -676.0305
   2   1.0000     -24.843498      -676.0260
   3   1.0000     -10.540013      -286.8083
   4   1.0000      -1.460859       -39.7520
   5   1.0000      -1.362150       -37.0660
   6   1.0000      -1.361965       -37.0610
   7   1.0000      -0.819993       -22.3131
   8   1.0000      -0.714335       -19.4380
   9   1.0000      -0.714291       -19.4369
  10   1.0000      -0.660267       -17.9668
  11   1.0000      -0.593343       -16.1457
  12   1.0000      -0.593341       -16.1456
  13   1.0000      -0.549711       -14.9584
  14   1.0000      -0.549630       -14.9562
  15   1.0000      -0.532862       -14.4999
  16   0.0000      -0.064806        -1.7635
  17   0.0000       0.082315         2.2399
  18   0.0000       0.108068         2.9407
  19   0.0000       0.108077         2.9409
  20   0.0000       0.127650         3.4735

MULLIKEN ATOMIC CHARGES AND SPIN POPULATIONS
--------------------------------------------
   0 C :    0.542343    0.789329
   1 F :   -0.180880    0.070218
   2 F :   -0.180731    0.070227
   3 F :   -0.180732    0.070227
Sum of atomic charges         :   -0.0000000

LOEWDIN ATOMIC CHARGES AND SPIN POPULATIONS
-------------------------------------------
   0 C :   -0.331263    0.621406
   1 F :    0.110068    0.126188
   2 F :    0.110598    0.126203
   3 F :    0.110598    0.126203

  Mayer bond orders larger than 0.100000
B(  0-C ,  1-F ) :   1.0550 B(  0-C ,  2-F ) :   1.0553 B(  0-C ,  3-F ) :   1.0553

Dispersion correction           -0.000066167
FINAL SINGLE POINT ENERGY      -337.621490788072

DIPOLE MOMENT
-------------
                                X             Y             Z
Electronic contribution:     -0.00100      -0.00000       0.02878
Nuclear contribution   :     -0.00010      -0.00000       0.25791
                        -----------------------------------------
Total Dipole Moment    :     -0.00110      -0.00000       0.28669
                        -----------------------------------------
Magnitude (a.u.)       :      0.28669
Magnitude (Debye)      :      0.72871

Dispersion correction in the Hessian             ... done   (      0.1 sec)

VIBRATIONAL FREQUENCIES
-----------------------

Scaling factor for frequencies =  1.000000000  (already applied!)

   0:         0.00 cm**-1
   1:         0.00 cm**-1
   2:         0.00 cm**-1
   3:         0.00 cm**-1
   4:         0.00 cm**-1
   5:         0.00 cm**-1
   6:       550.70 cm**-1
   7:       550.86 cm**-1
   8:       749.68 cm**-1
   9:      1118.22 cm**-1
  10:      1164.86 cm**-1
  11:      1166.82 cm**-1

IR SPECTRUM
-----------

 Mode   freq       eps      Int      T**2         TX        TY        TZ
       cm**-1   L/(mol*cm) km/mol    a.u.
----------------------------------------------------------------------------
  6:    550.70   0.000295    1.49  0.000167  ( 0.000005 -0.012937 -0.000000)
  7:    550.86   0.000294    1.48  0.000166  (-0.012899 -0.000005  0.000019)
  8:    749.68   0.002416   12.21  0.001006  ( 0.000064  0.000000  0.031710)
  9:   1118.22   0.009263   46.81  0.002585  (-0.002474 -0.000001  0.050784)
 10:   1164.86   0.066258  334.84  0.017750  (-0.133228  0.000036 -0.000930)
 11:   1166.82   0.066218  334.64  0.017710  ( 0.000036  0.133079  0.000000)

--------------------------
THERMOCHEMISTRY AT 298.15K
--------------------------

Temperature         ... 298.15 K
Pressure            ... 1.00 atm
Total Mass          ... 69.00 AMU

Throughout the following assumptions are being made:
  (1) The electronic state is orbitally nondegenerate
      but the spin degeneracy is treated
  (2) There are no thermally accessible electronically excited states
  (3) Hindered rotations indicated by low frequency modes are not
      treated as such but are treated as vibrations and this may
      cause some error
  (4) All equations used are the standard statistical mechanics
      equations for an ideal gas
  (5) All vibrations are strictly harmonic

freq.     550.70  E(vib)   ...       0.12
freq.     550.86  E(vib)   ...       0.12
freq.     749.68  E(vib)   ...       0.06
freq.    1118.22  E(vib)   ...       0.01
freq.    1164.86  E(vib)   ...       0.01
freq.    1166.82  E(vib)   ...       0.01

------------
INNER ENERGY
------------

The inner energy is: U= E(el) + E(ZPE) + E(vib) + E(rot) + E(trans)
    E(el)   - is the total energy from the electronic structure calculation
              = E(kin-el) + E(nuc-el) + E(el-el) + E(nuc-nuc)
    E(ZPE)  - the the zero temperature vibrational energy from the frequency calculation
    E(vib)  - the the finite temperature correction to E(ZPE) due to population
              of excited vibrational states
    E(rot)  - is the rotational thermal energy
    E(trans)- is the translational thermal energy

Summary of contributions to the inner energy U:
Electronic energy                ...   -337.62149079 Eh
Zero point energy                ...      0.01207687 Eh       7.58 kcal/mol
Thermal vibrational correction   ...      0.00053423 Eh       0.34 kcal/mol
Thermal rotational correction    ...      0.00141627 Eh       0.89 kcal/mol
Thermal translational correction ...      0.00141627 Eh       0.89 kcal/mol
-----------------------------------------------------------------------
Total thermal energy                   -337.60604715 Eh

Summary of corrections to the electronic energy:
(perhaps to be used in another calculation)
Total thermal correction                  0.00336677 Eh       2.11 kcal/mol
Non-thermal (ZPE) correction              0.01207687 Eh       7.58 kcal/mol
-----------------------------------------------------------------------
Total correction                          0.01544364 Eh       9.69 kcal/mol

--------
ENTHALPY
--------

The enthalpy is H = U + kB*T
                kB is Boltzmann's constant
Total free energy                 ...   -337.60604715 Eh
Thermal Enthalpy correction       ...      0.00094421 Eh       0.59 kcal/mol
-----------------------------------------------------------------------
Total Enthalpy                    ...   -337.60510294 Eh

Note: Rotational entropy computed according to Herzberg
Infrared and Raman Spectra, Chapter V,1, Van Nostrand Reinhold, 1945
Point Group:  Cs, Symmetry Number:   1
Rotational constants in cm-1:     0.373991     0.373805     0.199418

Vibrational entropy computed according to the QRRHO of S. Grimme
Chem.Eur.J. 2012 18 9955

-------
ENTROPY
-------

The entropy contributions are T*S = T*(S(el)+S(vib)+S(rot)+S(trans))
     S(el)   - electronic entropy
     S(vib)  - vibrational entropy
     S(rot)  - rotational entropy
     S(trans)- translational entropy
The entropies will be listed as multiplied by the temperature to get
units of energy

Electronic entropy                ...      0.00065446 Eh      0.41 kcal/mol
Vibrational entropy               ...      0.00070902 Eh      0.44 kcal/mol
Rotational entropy                ...      0.01120084 Eh      7.03 kcal/mol
Translational entropy             ...      0.01834582 Eh     11.51 kcal/mol
-----------------------------------------------------------------------
Final entropy term                ...      0.03091014 Eh     19.40 kcal/mol

In case the symmetry of your molecule has not been determined correctly
or in case you have a reason to use a different symmetry number we print
out the resulting rotational entropy values for sn=1,12 :
 --------------------------------------------------------
|  sn= 1 | S(rot)=       0.01120084 Eh      7.03 kcal/mol|
|  sn= 2 | S(rot)=       0.01054639 Eh      6.62 kcal/mol|
|  sn= 3 | S(rot)=       0.01016356 Eh      6.38 kcal/mol|
|  sn= 4 | S(rot)=       0.00989193 Eh      6.21 kcal/mol|
|  sn= 5 | S(rot)=       0.00968124 Eh      6.08 kcal/mol|
|  sn= 6 | S(rot)=       0.00950910 Eh      5.97 kcal/mol|
|  sn= 7 | S(rot)=       0.00936355 Eh      5.88 kcal/mol|
|  sn= 8 | S(rot)=       0.00923748 Eh      5.80 kcal/mol|
|  sn= 9 | S(rot)=       0.00912627 Eh      5.73 kcal/mol|
|  sn=10 | S(rot)=       0.00902679 Eh      5.66 kcal/mol|
|  sn=11 | S(rot)=       0.00893680 Eh      5.61 kcal/mol|
|  sn=12 | S(rot)=       0.00885464 Eh      5.56 kcal/mol|
 --------------------------------------------------------

-------------------
GIBBS FREE ENERGY
-------------------

The Gibbs free energy is G = H - T*S

Total enthalpy                    ...   -337.60510294 Eh
Total entropy correction          ...     -0.03091014 Eh    -19.40 kcal/mol
-----------------------------------------------------------------------
Final Gibbs free energy         ...   -337.63601308 Eh

For completeness - the Gibbs free energy minus the electronic energy
G-E(el)                           ...     -0.01452229 Eh     -9.11 kcal/mol

                             ****ORCA TERMINATED NORMALLY****
TOTAL RUN TIME: 0 days 0 hours 2 minutes 31 seconds 723 msec
