                         Program Version 5.0.4 -  RELEASE  -
|  1> ! UKS TightSCF wB97x-D3 def2-TZVPD xyzfile opt freq
|  2>
|  3> # CF3 radical 106.0 degrees fixed
|  4>
|  5> %maxcore 1000
|  6> %pal
|  7> nprocs 18
|  8> end
|  9>
| 10> %geom Constraints
| 11>         { A * 0 * C }
| 12>     end
| 13> end
| 14> * xyz 0 2
| 15> C 0.00 0.00 0.00
| 16> F 1.2126730822 0.0000000000 -0.5085754571
| 17> F -0.6063365411 1.0502056957 -0.5085754571
| 18> F -0.6063365411 -1.0502056957 -0.5085754571
| 19> **                         ****END OF INPUT****
 Total Charge           Charge          ....    0
 Multiplicity           Mult            ....    2
 Number of Electrons    NEL             ....   33
Dispersion correction           -0.000063913
FINAL SINGLE POINT ENERGY      -337.624180995089
Dispersion correction            ... done
Dispersion correction           -0.000067716
FINAL SINGLE POINT ENERGY      -337.624577548660
Dispersion correction            ... done
Dispersion correction           -0.000068469
FINAL SINGLE POINT ENERGY      -337.624588812065
Dispersion correction            ... done
                    ***********************HURRAY********************

CARTESIAN COORDINATES (ANGSTROEM)
---------------------------------
  C     -0.000109    0.000000    0.003366
  F      1.223528    0.000000   -0.509728
  F     -0.611709    1.059371   -0.509682
  F     -0.611709   -1.059371   -0.509682

 Multiplicity           Mult            ....    2
 Number of Electrons    NEL             ....   33
 Basis Dimension        Dim             ....  157

ORBITAL ENERGIES
----------------
                 SPIN UP ORBITALS
  NO   OCC          E(Eh)            E(eV)
   0   1.0000     -24.847753      -676.1417
   1   1.0000     -24.847748      -676.1416
   2   1.0000     -24.847628      -676.1383
   3   1.0000     -10.550952      -287.1060
   4   1.0000      -1.470627       -40.0178
   5   1.0000      -1.373114       -37.3643
   6   1.0000      -1.372981       -37.3607
   7   1.0000      -0.838947       -22.8289
   8   1.0000      -0.726862       -19.7789
   9   1.0000      -0.726821       -19.7778
  10   1.0000      -0.700165       -19.0525
  11   1.0000      -0.605480       -16.4760
  12   1.0000      -0.605478       -16.4759
  13   1.0000      -0.560297       -15.2464
  14   1.0000      -0.560238       -15.2449
  15   1.0000      -0.538108       -14.6427
  16   1.0000      -0.410611       -11.1733
  17   0.0000       0.071866         1.9556
  18   0.0000       0.105047         2.8585
  19   0.0000       0.105051         2.8586
  20   0.0000       0.112896         3.0721
  21   0.0000       0.160642         4.3713

                 SPIN DOWN ORBITALS
  NO   OCC          E(Eh)            E(eV)
   0   1.0000     -24.844802      -676.0614
   1   1.0000     -24.844792      -676.0612
   2   1.0000     -24.844673      -676.0579
   3   1.0000     -10.538021      -286.7541
   4   1.0000      -1.461195       -39.7611
   5   1.0000      -1.364434       -37.1281
   6   1.0000      -1.364299       -37.1245
   7   1.0000      -0.820249       -22.3201
   8   1.0000      -0.716040       -19.4844
   9   1.0000      -0.716011       -19.4836
  10   1.0000      -0.660897       -17.9839
  11   1.0000      -0.593997       -16.1635
  12   1.0000      -0.593995       -16.1634
  13   1.0000      -0.552197       -15.0261
  14   1.0000      -0.552134       -15.0243
  15   1.0000      -0.534810       -14.5529
  16   0.0000      -0.058332        -1.5873
  17   0.0000       0.082294         2.2393
  18   0.0000       0.108025         2.9395
  19   0.0000       0.108031         2.9397
  20   0.0000       0.128143         3.4869

MULLIKEN ATOMIC CHARGES AND SPIN POPULATIONS
--------------------------------------------
   0 C :    0.541926    0.792912
   1 F :   -0.180693    0.069022
   2 F :   -0.180616    0.069033
   3 F :   -0.180617    0.069033
Sum of atomic charges         :   -0.0000000

LOEWDIN ATOMIC CHARGES AND SPIN POPULATIONS
-------------------------------------------
   0 C :   -0.345687    0.620389
   1 F :    0.114972    0.126533
   2 F :    0.115358    0.126539
   3 F :    0.115357    0.126539

  Mayer bond orders larger than 0.100000
B(  0-C ,  1-F ) :   1.0543 B(  0-C ,  2-F ) :   1.0545 B(  0-C ,  3-F ) :   1.0545

Dispersion correction           -0.000068499
FINAL SINGLE POINT ENERGY      -337.624588837262

DIPOLE MOMENT
-------------
                                X             Y             Z
Electronic contribution:     -0.00073       0.00000       0.01121
Nuclear contribution   :     -0.00007       0.00000       0.24823
                        -----------------------------------------
Total Dipole Moment    :     -0.00080       0.00000       0.25944
                        -----------------------------------------
Magnitude (a.u.)       :      0.25944
Magnitude (Debye)      :      0.65945

Dispersion correction in the Hessian             ... done   (      0.1 sec)

VIBRATIONAL FREQUENCIES
-----------------------

Scaling factor for frequencies =  1.000000000  (already applied!)

   0:         0.00 cm**-1
   1:         0.00 cm**-1
   2:         0.00 cm**-1
   3:         0.00 cm**-1
   4:         0.00 cm**-1
   5:         0.00 cm**-1
   6:       544.63 cm**-1
   7:       544.89 cm**-1
   8:       743.74 cm**-1
   9:      1119.20 cm**-1
  10:      1182.98 cm**-1
  11:      1184.50 cm**-1

IR SPECTRUM
-----------

 Mode   freq       eps      Int      T**2         TX        TY        TZ
       cm**-1   L/(mol*cm) km/mol    a.u.
----------------------------------------------------------------------------
  6:    544.63   0.000296    1.49  0.000169  (-0.000001 -0.013017 -0.000000)
  7:    544.89   0.000294    1.49  0.000169  (-0.012982  0.000001  0.000042)
  8:    743.74   0.002396   12.11  0.001005  ( 0.000026 -0.000000  0.031706)
  9:   1119.20   0.009125   46.12  0.002544  ( 0.001323 -0.000001 -0.050425)
 10:   1182.98   0.067308  340.15  0.017755  ( 0.133248  0.000029  0.000510)
 11:   1184.50   0.067250  339.85  0.017717  ( 0.000029 -0.133106  0.000000)

--------------------------
THERMOCHEMISTRY AT 298.15K
--------------------------

Temperature         ... 298.15 K
Pressure            ... 1.00 atm
Total Mass          ... 69.00 AMU

Throughout the following assumptions are being made:
  (1) The electronic state is orbitally nondegenerate
      but the spin degeneracy is treated
  (2) There are no thermally accessible electronically excited states
  (3) Hindered rotations indicated by low frequency modes are not
      treated as such but are treated as vibrations and this may
      cause some error
  (4) All equations used are the standard statistical mechanics
      equations for an ideal gas
  (5) All vibrations are strictly harmonic

freq.     544.63  E(vib)   ...       0.12
freq.     544.89  E(vib)   ...       0.12
freq.     743.74  E(vib)   ...       0.06
freq.    1119.20  E(vib)   ...       0.01
freq.    1182.98  E(vib)   ...       0.01
freq.    1184.50  E(vib)   ...       0.01

------------
INNER ENERGY
------------

The inner energy is: U= E(el) + E(ZPE) + E(vib) + E(rot) + E(trans)
    E(el)   - is the total energy from the electronic structure calculation
              = E(kin-el) + E(nuc-el) + E(el-el) + E(nuc-nuc)
    E(ZPE)  - the the zero temperature vibrational energy from the frequency calculation
    E(vib)  - the the finite temperature correction to E(ZPE) due to population
              of excited vibrational states
    E(rot)  - is the rotational thermal energy
    E(trans)- is the translational thermal energy

Summary of contributions to the inner energy U:
Electronic energy                ...   -337.62458884 Eh
Zero point energy                ...      0.01211973 Eh       7.61 kcal/mol
Thermal vibrational correction   ...      0.00054129 Eh       0.34 kcal/mol
Thermal rotational correction    ...      0.00141627 Eh       0.89 kcal/mol
Thermal translational correction ...      0.00141627 Eh       0.89 kcal/mol
-----------------------------------------------------------------------
Total thermal energy                   -337.60909527 Eh

Summary of corrections to the electronic energy:
(perhaps to be used in another calculation)
Total thermal correction                  0.00337384 Eh       2.12 kcal/mol
Non-thermal (ZPE) correction              0.01211973 Eh       7.61 kcal/mol
-----------------------------------------------------------------------
Total correction                          0.01549357 Eh       9.72 kcal/mol

--------
ENTHALPY
--------

The enthalpy is H = U + kB*T
                kB is Boltzmann's constant
Total free energy                 ...   -337.60909527 Eh
Thermal Enthalpy correction       ...      0.00094421 Eh       0.59 kcal/mol
-----------------------------------------------------------------------
Total Enthalpy                    ...   -337.60815106 Eh

Note: Rotational entropy computed according to Herzberg
Infrared and Raman Spectra, Chapter V,1, Van Nostrand Reinhold, 1945
Point Group:  Cs, Symmetry Number:   1
Rotational constants in cm-1:     0.372520     0.372385     0.197628

Vibrational entropy computed according to the QRRHO of S. Grimme
Chem.Eur.J. 2012 18 9955

-------
ENTROPY
-------

The entropy contributions are T*S = T*(S(el)+S(vib)+S(rot)+S(trans))
     S(el)   - electronic entropy
     S(vib)  - vibrational entropy
     S(rot)  - rotational entropy
     S(trans)- translational entropy
The entropies will be listed as multiplied by the temperature to get
units of energy

Electronic entropy                ...      0.00065446 Eh      0.41 kcal/mol
Vibrational entropy               ...      0.00072049 Eh      0.45 kcal/mol
Rotational entropy                ...      0.01120876 Eh      7.03 kcal/mol
Translational entropy             ...      0.01834582 Eh     11.51 kcal/mol
-----------------------------------------------------------------------
Final entropy term                ...      0.03092952 Eh     19.41 kcal/mol

In case the symmetry of your molecule has not been determined correctly
or in case you have a reason to use a different symmetry number we print
out the resulting rotational entropy values for sn=1,12 :
 --------------------------------------------------------
|  sn= 1 | S(rot)=       0.01120876 Eh      7.03 kcal/mol|
|  sn= 2 | S(rot)=       0.01055430 Eh      6.62 kcal/mol|
|  sn= 3 | S(rot)=       0.01017147 Eh      6.38 kcal/mol|
|  sn= 4 | S(rot)=       0.00989985 Eh      6.21 kcal/mol|
|  sn= 5 | S(rot)=       0.00968916 Eh      6.08 kcal/mol|
|  sn= 6 | S(rot)=       0.00951701 Eh      5.97 kcal/mol|
|  sn= 7 | S(rot)=       0.00937147 Eh      5.88 kcal/mol|
|  sn= 8 | S(rot)=       0.00924539 Eh      5.80 kcal/mol|
|  sn= 9 | S(rot)=       0.00913418 Eh      5.73 kcal/mol|
|  sn=10 | S(rot)=       0.00903470 Eh      5.67 kcal/mol|
|  sn=11 | S(rot)=       0.00894471 Eh      5.61 kcal/mol|
|  sn=12 | S(rot)=       0.00886256 Eh      5.56 kcal/mol|
 --------------------------------------------------------

-------------------
GIBBS FREE ENERGY
-------------------

The Gibbs free energy is G = H - T*S

Total enthalpy                    ...   -337.60815106 Eh
Total entropy correction          ...     -0.03092952 Eh    -19.41 kcal/mol
-----------------------------------------------------------------------
Final Gibbs free energy         ...   -337.63908058 Eh

For completeness - the Gibbs free energy minus the electronic energy
G-E(el)                           ...     -0.01449174 Eh     -9.09 kcal/mol

                             ****ORCA TERMINATED NORMALLY****
TOTAL RUN TIME: 0 days 0 hours 2 minutes 31 seconds 16 msec
