                         Program Version 5.0.4 -  RELEASE  -
|  1> ! UKS TightSCF wB97x-D3 def2-TZVPD xyzfile opt freq
|  2>
|  3> # CF3 radical 116.5 degrees fixed
|  4>
|  5> %maxcore 1000
|  6> %pal
|  7> nprocs 18
|  8> end
|  9>
| 10> %geom Constraints
| 11>         { A * 0 * C }
| 12>     end
| 13> end
| 14> * xyz 0 2
| 15> C 0.00 0.00 0.00
| 16> F 1.2912013562 0.0000000000 -0.2490462964
| 17> F -0.6456006781 1.1182131759 -0.2490462964
| 18> F -0.6456006781 -1.1182131759 -0.2490462964
| 19> **                         ****END OF INPUT****
 Total Charge           Charge          ....    0
 Multiplicity           Mult            ....    2
 Number of Electrons    NEL             ....   33
Dispersion correction           -0.000103605
FINAL SINGLE POINT ENERGY      -337.622061077768
Dispersion correction            ... done
Dispersion correction           -0.000100812
FINAL SINGLE POINT ENERGY      -337.622156198717
Dispersion correction            ... done
Dispersion correction           -0.000100107
FINAL SINGLE POINT ENERGY      -337.622159767380
Dispersion correction            ... done
                    ***********************HURRAY********************

CARTESIAN COORDINATES (ANGSTROEM)
---------------------------------
  C     -0.000195    0.000000   -0.000830
  F      1.285777    0.000000   -0.248795
  F     -0.642791    1.113032   -0.248757
  F     -0.642791   -1.113032   -0.248757

 Multiplicity           Mult            ....    2
 Number of Electrons    NEL             ....   33
 Basis Dimension        Dim             ....  157

ORBITAL ENERGIES
----------------
                 SPIN UP ORBITALS
  NO   OCC          E(Eh)            E(eV)
   0   1.0000     -24.857589      -676.4094
   1   1.0000     -24.857581      -676.4092
   2   1.0000     -24.857381      -676.4037
   3   1.0000     -10.526463      -286.4396
   4   1.0000      -1.466552       -39.9069
   5   1.0000      -1.390050       -37.8252
   6   1.0000      -1.389780       -37.8178
   7   1.0000      -0.837183       -22.7809
   8   1.0000      -0.736737       -20.0476
   9   1.0000      -0.736662       -20.0456
  10   1.0000      -0.700480       -19.0610
  11   1.0000      -0.606000       -16.4901
  12   1.0000      -0.605989       -16.4898
  13   1.0000      -0.584885       -15.9155
  14   1.0000      -0.584800       -15.9132
  15   1.0000      -0.554365       -15.0850
  16   1.0000      -0.325660        -8.8617
  17   0.0000       0.063864         1.7378
  18   0.0000       0.101140         2.7522
  19   0.0000       0.101150         2.7524
  20   0.0000       0.117347         3.1932
  21   0.0000       0.154871         4.2142

                 SPIN DOWN ORBITALS
  NO   OCC          E(Eh)            E(eV)
   0   1.0000     -24.854616      -676.3285
   1   1.0000     -24.854604      -676.3282
   2   1.0000     -24.854408      -676.3228
   3   1.0000     -10.513602      -286.0896
   4   1.0000      -1.455881       -39.6165
   5   1.0000      -1.381926       -37.6041
   6   1.0000      -1.381663       -37.5970
   7   1.0000      -0.818191       -22.2641
   8   1.0000      -0.727608       -19.7992
   9   1.0000      -0.727542       -19.7974
  10   1.0000      -0.663234       -18.0475
  11   1.0000      -0.596813       -16.2401
  12   1.0000      -0.596754       -16.2385
  13   1.0000      -0.572342       -15.5742
  14   1.0000      -0.572219       -15.5709
  15   1.0000      -0.551217       -14.9994
  16   0.0000       0.023509         0.6397
  17   0.0000       0.079411         2.1609
  18   0.0000       0.105285         2.8650
  19   0.0000       0.105297         2.8653
  20   0.0000       0.133353         3.6287

MULLIKEN ATOMIC CHARGES AND SPIN POPULATIONS
--------------------------------------------
   0 C :    0.511730    0.849387
   1 F :   -0.170661    0.050169
   2 F :   -0.170535    0.050222
   3 F :   -0.170534    0.050222
Sum of atomic charges         :   -0.0000000

LOEWDIN ATOMIC CHARGES AND SPIN POPULATIONS
-------------------------------------------
   0 C :   -0.452967    0.610652
   1 F :    0.150473    0.129689
   2 F :    0.151247    0.129830
   3 F :    0.151247    0.129830

  Mayer bond orders larger than 0.100000
B(  0-C ,  1-F ) :   1.0500 B(  0-C ,  2-F ) :   1.0504 B(  0-C ,  3-F ) :   1.0504

Dispersion correction           -0.000100121
FINAL SINGLE POINT ENERGY      -337.622159732442

DIPOLE MOMENT
-------------
                                X             Y             Z
Electronic contribution:     -0.00130       0.00000      -0.17573
Nuclear contribution   :     -0.00013       0.00000       0.11996
                        -----------------------------------------
Total Dipole Moment    :     -0.00142       0.00000      -0.05577
                        -----------------------------------------
Magnitude (a.u.)       :      0.05579
Magnitude (Debye)      :      0.14180

Dispersion correction in the Hessian             ... done   (      0.1 sec)

VIBRATIONAL FREQUENCIES
-----------------------

Scaling factor for frequencies =  1.000000000  (already applied!)

   0:         0.00 cm**-1
   1:         0.00 cm**-1
   2:         0.00 cm**-1
   3:         0.00 cm**-1
   4:         0.00 cm**-1
   5:         0.00 cm**-1
   6:       479.95 cm**-1
   7:       480.11 cm**-1
   8:       605.44 cm**-1
   9:      1002.22 cm**-1
  10:      1346.14 cm**-1
  11:      1348.83 cm**-1

IR SPECTRUM
-----------

 Mode   freq       eps      Int      T**2         TX        TY        TZ
       cm**-1   L/(mol*cm) km/mol    a.u.
----------------------------------------------------------------------------
  6:    479.95   0.000403    2.04  0.000262  (-0.000006  0.016184  0.000000)
  7:    480.11   0.000403    2.04  0.000262  (-0.016180 -0.000006  0.000112)
  8:    605.44   0.002200   11.12  0.001134  ( 0.000062 -0.000000  0.033671)
  9:   1002.22   0.002912   14.72  0.000907  ( 0.000470 -0.000000 -0.030108)
 10:   1346.14   0.073147  369.65  0.016957  ( 0.130219  0.000017  0.000145)
 11:   1348.83   0.073203  369.94  0.016936  ( 0.000017 -0.130139  0.000000)

--------------------------
THERMOCHEMISTRY AT 298.15K
--------------------------

Temperature         ... 298.15 K
Pressure            ... 1.00 atm
Total Mass          ... 69.00 AMU

Throughout the following assumptions are being made:
  (1) The electronic state is orbitally nondegenerate
      but the spin degeneracy is treated
  (2) There are no thermally accessible electronically excited states
  (3) Hindered rotations indicated by low frequency modes are not
      treated as such but are treated as vibrations and this may
      cause some error
  (4) All equations used are the standard statistical mechanics
      equations for an ideal gas
  (5) All vibrations are strictly harmonic

freq.     479.95  E(vib)   ...       0.15
freq.     480.11  E(vib)   ...       0.15
freq.     605.44  E(vib)   ...       0.10
freq.    1002.22  E(vib)   ...       0.02
freq.    1346.14  E(vib)   ...       0.01
freq.    1348.83  E(vib)   ...       0.01

------------
INNER ENERGY
------------

The inner energy is: U= E(el) + E(ZPE) + E(vib) + E(rot) + E(trans)
    E(el)   - is the total energy from the electronic structure calculation
              = E(kin-el) + E(nuc-el) + E(el-el) + E(nuc-nuc)
    E(ZPE)  - the the zero temperature vibrational energy from the frequency calculation
    E(vib)  - the the finite temperature correction to E(ZPE) due to population
              of excited vibrational states
    E(rot)  - is the rotational thermal energy
    E(trans)- is the translational thermal energy

Summary of contributions to the inner energy U:
Electronic energy                ...   -337.62215973 Eh
Zero point energy                ...      0.01198927 Eh       7.52 kcal/mol
Thermal vibrational correction   ...      0.00069062 Eh       0.43 kcal/mol
Thermal rotational correction    ...      0.00141627 Eh       0.89 kcal/mol
Thermal translational correction ...      0.00141627 Eh       0.89 kcal/mol
-----------------------------------------------------------------------
Total thermal energy                   -337.60664730 Eh

Summary of corrections to the electronic energy:
(perhaps to be used in another calculation)
Total thermal correction                  0.00352316 Eh       2.21 kcal/mol
Non-thermal (ZPE) correction              0.01198927 Eh       7.52 kcal/mol
-----------------------------------------------------------------------
Total correction                          0.01551243 Eh       9.73 kcal/mol

--------
ENTHALPY
--------

The enthalpy is H = U + kB*T
                kB is Boltzmann's constant
Total free energy                 ...   -337.60664730 Eh
Thermal Enthalpy correction       ...      0.00094421 Eh       0.59 kcal/mol
-----------------------------------------------------------------------
Total Enthalpy                    ...   -337.60570309 Eh

Note: Rotational entropy computed according to Herzberg
Infrared and Raman Spectra, Chapter V,1, Van Nostrand Reinhold, 1945
Point Group:  Cs, Symmetry Number:   1
Rotational constants in cm-1:     0.353552     0.353284     0.178998

Vibrational entropy computed according to the QRRHO of S. Grimme
Chem.Eur.J. 2012 18 9955

-------
ENTROPY
-------

The entropy contributions are T*S = T*(S(el)+S(vib)+S(rot)+S(trans))
     S(el)   - electronic entropy
     S(vib)  - vibrational entropy
     S(rot)  - rotational entropy
     S(trans)- translational entropy
The entropies will be listed as multiplied by the temperature to get
units of energy

Electronic entropy                ...      0.00065446 Eh      0.41 kcal/mol
Vibrational entropy               ...      0.00095060 Eh      0.60 kcal/mol
Rotational entropy                ...      0.01130503 Eh      7.09 kcal/mol
Translational entropy             ...      0.01834582 Eh     11.51 kcal/mol
-----------------------------------------------------------------------
Final entropy term                ...      0.03125590 Eh     19.61 kcal/mol

In case the symmetry of your molecule has not been determined correctly
or in case you have a reason to use a different symmetry number we print
out the resulting rotational entropy values for sn=1,12 :
 --------------------------------------------------------
|  sn= 1 | S(rot)=       0.01130503 Eh      7.09 kcal/mol|
|  sn= 2 | S(rot)=       0.01065058 Eh      6.68 kcal/mol|
|  sn= 3 | S(rot)=       0.01026774 Eh      6.44 kcal/mol|
|  sn= 4 | S(rot)=       0.00999612 Eh      6.27 kcal/mol|
|  sn= 5 | S(rot)=       0.00978543 Eh      6.14 kcal/mol|
|  sn= 6 | S(rot)=       0.00961329 Eh      6.03 kcal/mol|
|  sn= 7 | S(rot)=       0.00946774 Eh      5.94 kcal/mol|
|  sn= 8 | S(rot)=       0.00934166 Eh      5.86 kcal/mol|
|  sn= 9 | S(rot)=       0.00923046 Eh      5.79 kcal/mol|
|  sn=10 | S(rot)=       0.00913098 Eh      5.73 kcal/mol|
|  sn=11 | S(rot)=       0.00904099 Eh      5.67 kcal/mol|
|  sn=12 | S(rot)=       0.00895883 Eh      5.62 kcal/mol|
 --------------------------------------------------------

-------------------
GIBBS FREE ENERGY
-------------------

The Gibbs free energy is G = H - T*S

Total enthalpy                    ...   -337.60570309 Eh
Total entropy correction          ...     -0.03125590 Eh    -19.61 kcal/mol
-----------------------------------------------------------------------
Final Gibbs free energy         ...   -337.63695900 Eh

For completeness - the Gibbs free energy minus the electronic energy
G-E(el)                           ...     -0.01479926 Eh     -9.29 kcal/mol

                             ****ORCA TERMINATED NORMALLY****
TOTAL RUN TIME: 0 days 0 hours 1 minutes 40 seconds 437 msec
