                         Program Version 5.0.4 -  RELEASE  -
|  1> ! UKS TightSCF wB97x-D3 def2-TZVPD xyzfile opt freq
|  2>
|  3> # CF3 radical 115.0 degrees fixed
|  4>
|  5> %maxcore 1000
|  6> %pal
|  7> nprocs 18
|  8> end
|  9>
| 10> %geom Constraints
| 11>         { A * 0 * C }
| 12>     end
| 13> end
| 14> * xyz 0 2
| 15> C 0.00 0.00 0.00
| 16> F 1.2806318919 0.0000000000 -0.2986753381
| 17> F -0.6403159459 1.1090597512 -0.2986753381
| 18> F -0.6403159459 -1.1090597512 -0.2986753381
| 19> **                         ****END OF INPUT****
 Total Charge           Charge          ....    0
 Multiplicity           Mult            ....    2
 Number of Electrons    NEL             ....   33
Dispersion correction           -0.000097323
FINAL SINGLE POINT ENERGY      -337.627814408882
Dispersion correction            ... done
Dispersion correction           -0.000095238
FINAL SINGLE POINT ENERGY      -337.627875883713
Dispersion correction            ... done
Dispersion correction           -0.000094723
FINAL SINGLE POINT ENERGY      -337.627878716817
Dispersion correction            ... done
                    ***********************HURRAY********************

CARTESIAN COORDINATES (ANGSTROEM)
---------------------------------
  C      0.000010   -0.000000   -0.000782
  F      1.276147   -0.000000   -0.298413
  F     -0.638078    1.105200   -0.298416
  F     -0.638078   -1.105200   -0.298416

 Multiplicity           Mult            ....    2
 Number of Electrons    NEL             ....   33
 Basis Dimension        Dim             ....  157

ORBITAL ENERGIES
----------------
                 SPIN UP ORBITALS
  NO   OCC          E(Eh)            E(eV)
   0   1.0000     -24.856635      -676.3834
   1   1.0000     -24.856612      -676.3828
   2   1.0000     -24.856604      -676.3826
   3   1.0000     -10.531481      -286.5762
   4   1.0000      -1.468417       -39.9577
   5   1.0000      -1.388698       -37.7884
   6   1.0000      -1.388682       -37.7880
   7   1.0000      -0.838106       -22.8060
   8   1.0000      -0.736485       -20.0408
   9   1.0000      -0.736477       -20.0405
  10   1.0000      -0.701066       -19.0770
  11   1.0000      -0.606960       -16.5162
  12   1.0000      -0.606959       -16.5162
  13   1.0000      -0.581777       -15.8309
  14   1.0000      -0.581765       -15.8306
  15   1.0000      -0.552787       -15.0421
  16   1.0000      -0.341329        -9.2880
  17   0.0000       0.066473         1.8088
  18   0.0000       0.102042         2.7767
  19   0.0000       0.102044         2.7767
  20   0.0000       0.116318         3.1652
  21   0.0000       0.155818         4.2400

                 SPIN DOWN ORBITALS
  NO   OCC          E(Eh)            E(eV)
   0   1.0000     -24.853634      -676.3018
   1   1.0000     -24.853612      -676.3012
   2   1.0000     -24.853598      -676.3008
   3   1.0000     -10.518662      -286.2273
   4   1.0000      -1.457961       -39.6731
   5   1.0000      -1.380374       -37.5619
   6   1.0000      -1.380356       -37.5614
   7   1.0000      -0.819555       -22.3012
   8   1.0000      -0.726929       -19.7808
   9   1.0000      -0.726921       -19.7805
  10   1.0000      -0.663694       -18.0600
  11   1.0000      -0.597026       -16.2459
  12   1.0000      -0.597024       -16.2459
  13   1.0000      -0.570531       -15.5249
  14   1.0000      -0.570515       -15.5245
  15   1.0000      -0.549581       -14.9549
  16   0.0000       0.009358         0.2546
  17   0.0000       0.080579         2.1927
  18   0.0000       0.105961         2.8833
  19   0.0000       0.105962         2.8834
  20   0.0000       0.132792         3.6134

MULLIKEN ATOMIC CHARGES AND SPIN POPULATIONS
--------------------------------------------
   0 C :    0.518170    0.836228
   1 F :   -0.172678    0.054597
   2 F :   -0.172745    0.054587
   3 F :   -0.172746    0.054588
Sum of atomic charges         :   -0.0000000

LOEWDIN ATOMIC CHARGES AND SPIN POPULATIONS
-------------------------------------------
   0 C :   -0.442524    0.611099
   1 F :    0.147547    0.129633
   2 F :    0.147488    0.129634
   3 F :    0.147489    0.129634

  Mayer bond orders larger than 0.100000
B(  0-C ,  1-F ) :   1.0507 B(  0-C ,  2-F ) :   1.0507 B(  0-C ,  3-F ) :   1.0507

Dispersion correction           -0.000094731
FINAL SINGLE POINT ENERGY      -337.627878746183

DIPOLE MOMENT
-------------
                                X             Y             Z
Electronic contribution:      0.00009      -0.00000      -0.15132
Nuclear contribution   :      0.00001      -0.00000       0.14400
                        -----------------------------------------
Total Dipole Moment    :      0.00009      -0.00000      -0.00732
                        -----------------------------------------
Magnitude (a.u.)       :      0.00732
Magnitude (Debye)      :      0.01860

Dispersion correction in the Hessian             ... done   (      0.1 sec)

VIBRATIONAL FREQUENCIES
-----------------------

Scaling factor for frequencies =  1.000000000  (already applied!)

   0:         0.00 cm**-1
   1:         0.00 cm**-1
   2:         0.00 cm**-1
   3:         0.00 cm**-1
   4:         0.00 cm**-1
   5:         0.00 cm**-1
   6:       489.19 cm**-1
   7:       489.20 cm**-1
   8:       661.16 cm**-1
   9:      1043.05 cm**-1
  10:      1323.38 cm**-1
  11:      1323.53 cm**-1

IR SPECTRUM
-----------

 Mode   freq       eps      Int      T**2         TX        TY        TZ
       cm**-1   L/(mol*cm) km/mol    a.u.
----------------------------------------------------------------------------
  6:    489.19   0.000342    1.73  0.000218  (-0.014765  0.000053 -0.000038)
  7:    489.20   0.000340    1.72  0.000217  ( 0.000053  0.014737  0.000000)
  8:    661.16   0.002392   12.09  0.001129  (-0.000006 -0.000000 -0.033603)
  9:   1043.05   0.004825   24.39  0.001444  ( 0.000139 -0.000000  0.037996)
 10:   1323.38   0.073596  371.92  0.017354  ( 0.131736 -0.000175  0.000023)
 11:   1323.53   0.073606  371.98  0.017355  ( 0.000175  0.131738  0.000000)

--------------------------
THERMOCHEMISTRY AT 298.15K
--------------------------

Temperature         ... 298.15 K
Pressure            ... 1.00 atm
Total Mass          ... 69.00 AMU

Throughout the following assumptions are being made:
  (1) The electronic state is orbitally nondegenerate
      but the spin degeneracy is treated
  (2) There are no thermally accessible electronically excited states
  (3) Hindered rotations indicated by low frequency modes are not
      treated as such but are treated as vibrations and this may
      cause some error
  (4) All equations used are the standard statistical mechanics
      equations for an ideal gas
  (5) All vibrations are strictly harmonic

freq.     489.19  E(vib)   ...       0.15
freq.     489.20  E(vib)   ...       0.15
freq.     661.16  E(vib)   ...       0.08
freq.    1043.05  E(vib)   ...       0.02
freq.    1323.38  E(vib)   ...       0.01
freq.    1323.53  E(vib)   ...       0.01

------------
INNER ENERGY
------------

The inner energy is: U= E(el) + E(ZPE) + E(vib) + E(rot) + E(trans)
    E(el)   - is the total energy from the electronic structure calculation
              = E(kin-el) + E(nuc-el) + E(el-el) + E(nuc-nuc)
    E(ZPE)  - the the zero temperature vibrational energy from the frequency calculation
    E(vib)  - the the finite temperature correction to E(ZPE) due to population
              of excited vibrational states
    E(rot)  - is the rotational thermal energy
    E(trans)- is the translational thermal energy

Summary of contributions to the inner energy U:
Electronic energy                ...   -337.62787875 Eh
Zero point energy                ...      0.01214152 Eh       7.62 kcal/mol
Thermal vibrational correction   ...      0.00064529 Eh       0.40 kcal/mol
Thermal rotational correction    ...      0.00141627 Eh       0.89 kcal/mol
Thermal translational correction ...      0.00141627 Eh       0.89 kcal/mol
-----------------------------------------------------------------------
Total thermal energy                   -337.61225939 Eh

Summary of corrections to the electronic energy:
(perhaps to be used in another calculation)
Total thermal correction                  0.00347783 Eh       2.18 kcal/mol
Non-thermal (ZPE) correction              0.01214152 Eh       7.62 kcal/mol
-----------------------------------------------------------------------
Total correction                          0.01561935 Eh       9.80 kcal/mol

--------
ENTHALPY
--------

The enthalpy is H = U + kB*T
                kB is Boltzmann's constant
Total free energy                 ...   -337.61225939 Eh
Thermal Enthalpy correction       ...      0.00094421 Eh       0.59 kcal/mol
-----------------------------------------------------------------------
Total Enthalpy                    ...   -337.61131518 Eh

Note: Rotational entropy computed according to Herzberg
Infrared and Raman Spectra, Chapter V,1, Van Nostrand Reinhold, 1945
Point Group:  C3v, Symmetry Number:   3
Rotational constants in cm-1:     0.356490     0.356476     0.181617

Vibrational entropy computed according to the QRRHO of S. Grimme
Chem.Eur.J. 2012 18 9955

-------
ENTROPY
-------

The entropy contributions are T*S = T*(S(el)+S(vib)+S(rot)+S(trans))
     S(el)   - electronic entropy
     S(vib)  - vibrational entropy
     S(rot)  - rotational entropy
     S(trans)- translational entropy
The entropies will be listed as multiplied by the temperature to get
units of energy

Electronic entropy                ...      0.00065446 Eh      0.41 kcal/mol
Vibrational entropy               ...      0.00088263 Eh      0.55 kcal/mol
Rotational entropy                ...      0.01025273 Eh      6.43 kcal/mol
Translational entropy             ...      0.01834582 Eh     11.51 kcal/mol
-----------------------------------------------------------------------
Final entropy term                ...      0.03013563 Eh     18.91 kcal/mol

In case the symmetry of your molecule has not been determined correctly
or in case you have a reason to use a different symmetry number we print
out the resulting rotational entropy values for sn=1,12 :
 --------------------------------------------------------
|  sn= 1 | S(rot)=       0.01129002 Eh      7.08 kcal/mol|
|  sn= 2 | S(rot)=       0.01063557 Eh      6.67 kcal/mol|
|  sn= 3 | S(rot)=       0.01025273 Eh      6.43 kcal/mol|
|  sn= 4 | S(rot)=       0.00998111 Eh      6.26 kcal/mol|
|  sn= 5 | S(rot)=       0.00977042 Eh      6.13 kcal/mol|
|  sn= 6 | S(rot)=       0.00959828 Eh      6.02 kcal/mol|
|  sn= 7 | S(rot)=       0.00945273 Eh      5.93 kcal/mol|
|  sn= 8 | S(rot)=       0.00932665 Eh      5.85 kcal/mol|
|  sn= 9 | S(rot)=       0.00921544 Eh      5.78 kcal/mol|
|  sn=10 | S(rot)=       0.00911596 Eh      5.72 kcal/mol|
|  sn=11 | S(rot)=       0.00902597 Eh      5.66 kcal/mol|
|  sn=12 | S(rot)=       0.00894382 Eh      5.61 kcal/mol|
 --------------------------------------------------------

-------------------
GIBBS FREE ENERGY
-------------------

The Gibbs free energy is G = H - T*S

Total enthalpy                    ...   -337.61131518 Eh
Total entropy correction          ...     -0.03013563 Eh    -18.91 kcal/mol
-----------------------------------------------------------------------
Final Gibbs free energy         ...   -337.64145082 Eh

For completeness - the Gibbs free energy minus the electronic energy
G-E(el)                           ...     -0.01357207 Eh     -8.52 kcal/mol

                             ****ORCA TERMINATED NORMALLY****
TOTAL RUN TIME: 0 days 0 hours 1 minutes 34 seconds 360 msec
