                         Program Version 5.0.4 -  RELEASE  -
|  1> ! UKS TightSCF wB97x-D3 def2-TZVPD xyzfile opt freq
|  2>
|  3> # CF3 radical 108.5 degrees fixed
|  4>
|  5> %maxcore 1000
|  6> %pal
|  7> nprocs 18
|  8> end
|  9>
| 10> %geom Constraints
| 11>         { A * 0 * C }
| 12>     end
| 13> end
| 14> * xyz 0 2
| 15> C 0.00 0.00 0.00
| 16> F 1.2323192618 0.0000000000 -0.4589272677
| 17> F -0.6161596309 1.0672197863 -0.4589272677
| 18> F -0.6161596309 -1.0672197863 -0.4589272677
| 19> **                         ****END OF INPUT****
 Total Charge           Charge          ....    0
 Multiplicity           Mult            ....    2
 Number of Electrons    NEL             ....   33
Dispersion correction           -0.000072398
FINAL SINGLE POINT ENERGY      -337.630174723623
Dispersion correction            ... done
Dispersion correction           -0.000074352
FINAL SINGLE POINT ENERGY      -337.630263923084
Dispersion correction            ... done
Dispersion correction           -0.000074766
FINAL SINGLE POINT ENERGY      -337.630267358583
Dispersion correction            ... done
                    ***********************HURRAY********************

CARTESIAN COORDINATES (ANGSTROEM)
---------------------------------
  C      0.000091    0.000000    0.001418
  F      1.237264    0.000000   -0.459377
  F     -0.618678    1.071705   -0.459411
  F     -0.618678   -1.071705   -0.459411

 Multiplicity           Mult            ....    2
 Number of Electrons    NEL             ....   33
 Basis Dimension        Dim             ....  157

ORBITAL ENERGIES
----------------
                 SPIN UP ORBITALS
  NO   OCC          E(Eh)            E(eV)
   0   1.0000     -24.850545      -676.2177
   1   1.0000     -24.850450      -676.2151
   2   1.0000     -24.850444      -676.2150
   3   1.0000     -10.545948      -286.9698
   4   1.0000      -1.471177       -40.0328
   5   1.0000      -1.378437       -37.5092
   6   1.0000      -1.378329       -37.5062
   7   1.0000      -0.839063       -22.8321
   8   1.0000      -0.730505       -19.8781
   9   1.0000      -0.730480       -19.8774
  10   1.0000      -0.700979       -19.0746
  11   1.0000      -0.606632       -16.5073
  12   1.0000      -0.606626       -16.5071
  13   1.0000      -0.566721       -15.4213
  14   1.0000      -0.566693       -15.4205
  15   1.0000      -0.542738       -14.7687
  16   1.0000      -0.393936       -10.7196
  17   0.0000       0.071206         1.9376
  18   0.0000       0.104701         2.8490
  19   0.0000       0.104705         2.8492
  20   0.0000       0.113526         3.0892
  21   0.0000       0.159742         4.3468

                 SPIN DOWN ORBITALS
  NO   OCC          E(Eh)            E(eV)
   0   1.0000     -24.847566      -676.1367
   1   1.0000     -24.847473      -676.1341
   2   1.0000     -24.847463      -676.1338
   3   1.0000     -10.533068      -286.6194
   4   1.0000      -1.461506       -39.7696
   5   1.0000      -1.369799       -37.2741
   6   1.0000      -1.369690       -37.2712
   7   1.0000      -0.820691       -22.3321
   8   1.0000      -0.719941       -19.5906
   9   1.0000      -0.719905       -19.5896
  10   1.0000      -0.662266       -18.0212
  11   1.0000      -0.595396       -16.2016
  12   1.0000      -0.595386       -16.2013
  13   1.0000      -0.558102       -15.1867
  14   1.0000      -0.558067       -15.1858
  15   1.0000      -0.539453       -14.6793
  16   0.0000      -0.041456        -1.1281
  17   0.0000       0.082169         2.2359
  18   0.0000       0.107749         2.9320
  19   0.0000       0.107755         2.9322
  20   0.0000       0.129413         3.5215

MULLIKEN ATOMIC CHARGES AND SPIN POPULATIONS
--------------------------------------------
   0 C :    0.539095    0.802389
   1 F :   -0.179583    0.065863
   2 F :   -0.179755    0.065873
   3 F :   -0.179756    0.065874
Sum of atomic charges         :   -0.0000000

LOEWDIN ATOMIC CHARGES AND SPIN POPULATIONS
-------------------------------------------
   0 C :   -0.378717    0.617681
   1 F :    0.126461    0.127468
   2 F :    0.126128    0.127425
   3 F :    0.126128    0.127425

  Mayer bond orders larger than 0.100000
B(  0-C ,  1-F ) :   1.0528 B(  0-C ,  2-F ) :   1.0525 B(  0-C ,  3-F ) :   1.0525

Dispersion correction           -0.000074774
FINAL SINGLE POINT ENERGY      -337.630267377436

DIPOLE MOMENT
-------------
                                X             Y             Z
Electronic contribution:      0.00057       0.00000      -0.03328
Nuclear contribution   :      0.00006       0.00000       0.22295
                        -----------------------------------------
Total Dipole Moment    :      0.00063       0.00000       0.18967
                        -----------------------------------------
Magnitude (a.u.)       :      0.18967
Magnitude (Debye)      :      0.48211

Dispersion correction in the Hessian             ... done   (      0.1 sec)

VIBRATIONAL FREQUENCIES
-----------------------

Scaling factor for frequencies =  1.000000000  (already applied!)

   0:         0.00 cm**-1
   1:         0.00 cm**-1
   2:         0.00 cm**-1
   3:         0.00 cm**-1
   4:         0.00 cm**-1
   5:         0.00 cm**-1
   6:       529.47 cm**-1
   7:       529.61 cm**-1
   8:       728.47 cm**-1
   9:      1115.54 cm**-1
  10:      1225.81 cm**-1
  11:      1226.51 cm**-1

IR SPECTRUM
-----------

 Mode   freq       eps      Int      T**2         TX        TY        TZ
       cm**-1   L/(mol*cm) km/mol    a.u.
----------------------------------------------------------------------------
  6:    529.47   0.000296    1.49  0.000174  ( 0.000003 -0.013203 -0.000000)
  7:    529.61   0.000296    1.50  0.000175  (-0.013213 -0.000003  0.000061)
  8:    728.47   0.002370   11.98  0.001015  (-0.000065  0.000000  0.031864)
  9:   1115.54   0.008607   43.50  0.002408  ( 0.000537  0.000000  0.049065)
 10:   1225.81   0.069676  352.12  0.017738  (-0.000048 -0.133184  0.000000)
 11:   1226.51   0.069740  352.44  0.017744  (-0.133207  0.000048  0.000125)

--------------------------
THERMOCHEMISTRY AT 298.15K
--------------------------

Temperature         ... 298.15 K
Pressure            ... 1.00 atm
Total Mass          ... 69.00 AMU

Throughout the following assumptions are being made:
  (1) The electronic state is orbitally nondegenerate
      but the spin degeneracy is treated
  (2) There are no thermally accessible electronically excited states
  (3) Hindered rotations indicated by low frequency modes are not
      treated as such but are treated as vibrations and this may
      cause some error
  (4) All equations used are the standard statistical mechanics
      equations for an ideal gas
  (5) All vibrations are strictly harmonic

freq.     529.47  E(vib)   ...       0.13
freq.     529.61  E(vib)   ...       0.13
freq.     728.47  E(vib)   ...       0.06
freq.    1115.54  E(vib)   ...       0.01
freq.    1225.81  E(vib)   ...       0.01
freq.    1226.51  E(vib)   ...       0.01

------------
INNER ENERGY
------------

The inner energy is: U= E(el) + E(ZPE) + E(vib) + E(rot) + E(trans)
    E(el)   - is the total energy from the electronic structure calculation
              = E(kin-el) + E(nuc-el) + E(el-el) + E(nuc-nuc)
    E(ZPE)  - the the zero temperature vibrational energy from the frequency calculation
    E(vib)  - the the finite temperature correction to E(ZPE) due to population
              of excited vibrational states
    E(rot)  - is the rotational thermal energy
    E(trans)- is the translational thermal energy

Summary of contributions to the inner energy U:
Electronic energy                ...   -337.63026738 Eh
Zero point energy                ...      0.01220053 Eh       7.66 kcal/mol
Thermal vibrational correction   ...      0.00056171 Eh       0.35 kcal/mol
Thermal rotational correction    ...      0.00141627 Eh       0.89 kcal/mol
Thermal translational correction ...      0.00141627 Eh       0.89 kcal/mol
-----------------------------------------------------------------------
Total thermal energy                   -337.61467260 Eh

Summary of corrections to the electronic energy:
(perhaps to be used in another calculation)
Total thermal correction                  0.00339425 Eh       2.13 kcal/mol
Non-thermal (ZPE) correction              0.01220053 Eh       7.66 kcal/mol
-----------------------------------------------------------------------
Total correction                          0.01559478 Eh       9.79 kcal/mol

--------
ENTHALPY
--------

The enthalpy is H = U + kB*T
                kB is Boltzmann's constant
Total free energy                 ...   -337.61467260 Eh
Thermal Enthalpy correction       ...      0.00094421 Eh       0.59 kcal/mol
-----------------------------------------------------------------------
Total Enthalpy                    ...   -337.61372839 Eh

Note: Rotational entropy computed according to Herzberg
Infrared and Raman Spectra, Chapter V,1, Van Nostrand Reinhold, 1945
Point Group:  Cs, Symmetry Number:   1
Rotational constants in cm-1:     0.368613     0.368498     0.193175

Vibrational entropy computed according to the QRRHO of S. Grimme
Chem.Eur.J. 2012 18 9955

-------
ENTROPY
-------

The entropy contributions are T*S = T*(S(el)+S(vib)+S(rot)+S(trans))
     S(el)   - electronic entropy
     S(vib)  - vibrational entropy
     S(rot)  - rotational entropy
     S(trans)- translational entropy
The entropies will be listed as multiplied by the temperature to get
units of energy

Electronic entropy                ...      0.00065446 Eh      0.41 kcal/mol
Vibrational entropy               ...      0.00075318 Eh      0.47 kcal/mol
Rotational entropy                ...      0.01122945 Eh      7.05 kcal/mol
Translational entropy             ...      0.01834582 Eh     11.51 kcal/mol
-----------------------------------------------------------------------
Final entropy term                ...      0.03098290 Eh     19.44 kcal/mol

In case the symmetry of your molecule has not been determined correctly
or in case you have a reason to use a different symmetry number we print
out the resulting rotational entropy values for sn=1,12 :
 --------------------------------------------------------
|  sn= 1 | S(rot)=       0.01122945 Eh      7.05 kcal/mol|
|  sn= 2 | S(rot)=       0.01057499 Eh      6.64 kcal/mol|
|  sn= 3 | S(rot)=       0.01019216 Eh      6.40 kcal/mol|
|  sn= 4 | S(rot)=       0.00992054 Eh      6.23 kcal/mol|
|  sn= 5 | S(rot)=       0.00970985 Eh      6.09 kcal/mol|
|  sn= 6 | S(rot)=       0.00953771 Eh      5.98 kcal/mol|
|  sn= 7 | S(rot)=       0.00939216 Eh      5.89 kcal/mol|
|  sn= 8 | S(rot)=       0.00926608 Eh      5.81 kcal/mol|
|  sn= 9 | S(rot)=       0.00915487 Eh      5.74 kcal/mol|
|  sn=10 | S(rot)=       0.00905539 Eh      5.68 kcal/mol|
|  sn=11 | S(rot)=       0.00896540 Eh      5.63 kcal/mol|
|  sn=12 | S(rot)=       0.00888325 Eh      5.57 kcal/mol|
 --------------------------------------------------------

-------------------
GIBBS FREE ENERGY
-------------------

The Gibbs free energy is G = H - T*S

Total enthalpy                    ...   -337.61372839 Eh
Total entropy correction          ...     -0.03098290 Eh    -19.44 kcal/mol
-----------------------------------------------------------------------
Final Gibbs free energy         ...   -337.64471129 Eh

For completeness - the Gibbs free energy minus the electronic energy
G-E(el)                           ...     -0.01444391 Eh     -9.06 kcal/mol

                             ****ORCA TERMINATED NORMALLY****
TOTAL RUN TIME: 0 days 0 hours 2 minutes 22 seconds 632 msec
