                         Program Version 5.0.4 -  RELEASE  -
|  1> ! UKS TightSCF wB97x-D3 def2-TZVPD xyzfile opt freq
|  2>
|  3> # CF3 radical 113.5 degrees fixed
|  4>
|  5> %maxcore 1000
|  6> %pal
|  7> nprocs 18
|  8> end
|  9>
| 10> %geom Constraints
| 11>         { A * 0 * C }
| 12>     end
| 13> end
| 14> * xyz 0 2
| 15> C 0.00 0.00 0.00
| 16> F 1.2698429978 0.0000000000 -0.3416485926
| 17> F -0.6349214989 1.0997162949 -0.3416485926
| 18> F -0.6349214989 -1.0997162949 -0.3416485926
| 19> **                         ****END OF INPUT****
 Total Charge           Charge          ....    0
 Multiplicity           Mult            ....    2
 Number of Electrons    NEL             ....   33
Dispersion correction           -0.000091227
FINAL SINGLE POINT ENERGY      -337.631155354351
Dispersion correction            ... done
Dispersion correction           -0.000089936
FINAL SINGLE POINT ENERGY      -337.631181587988
Dispersion correction            ... done
Dispersion correction           -0.000089625
FINAL SINGLE POINT ENERGY      -337.631182645122
Dispersion correction            ... done
                    ***********************HURRAY********************

CARTESIAN COORDINATES (ANGSTROEM)
---------------------------------
  C      0.000185   -0.000000   -0.000584
  F      1.266666   -0.000000   -0.341421
  F     -0.633425    1.097405   -0.341471
  F     -0.633425   -1.097405   -0.341471

 Multiplicity           Mult            ....    2
 Number of Electrons    NEL             ....   33
 Basis Dimension        Dim             ....  157

ORBITAL ENERGIES
----------------
                 SPIN UP ORBITALS
  NO   OCC          E(Eh)            E(eV)
   0   1.0000     -24.855575      -676.3546
   1   1.0000     -24.855351      -676.3485
   2   1.0000     -24.855344      -676.3483
   3   1.0000     -10.535411      -286.6831
   4   1.0000      -1.469696       -39.9925
   5   1.0000      -1.387023       -37.7428
   6   1.0000      -1.386772       -37.7360
   7   1.0000      -0.838621       -22.8200
   8   1.0000      -0.735714       -20.0198
   9   1.0000      -0.735641       -20.0178
  10   1.0000      -0.701365       -19.0851
  11   1.0000      -0.607375       -16.5275
  12   1.0000      -0.607367       -16.5273
  13   1.0000      -0.578573       -15.7438
  14   1.0000      -0.578484       -15.7413
  15   1.0000      -0.550822       -14.9886
  16   1.0000      -0.355211        -9.6658
  17   0.0000       0.068222         1.8564
  18   0.0000       0.102857         2.7989
  19   0.0000       0.102868         2.7992
  20   0.0000       0.115475         3.1422
  21   0.0000       0.156792         4.2665

                 SPIN DOWN ORBITALS
  NO   OCC          E(Eh)            E(eV)
   0   1.0000     -24.852565      -676.2727
   1   1.0000     -24.852343      -676.2666
   2   1.0000     -24.852331      -676.2663
   3   1.0000     -10.522600      -286.3345
   4   1.0000      -1.459442       -39.7134
   5   1.0000      -1.378572       -37.5128
   6   1.0000      -1.378321       -37.5060
   7   1.0000      -0.820293       -22.3213
   8   1.0000      -0.725838       -19.7510
   9   1.0000      -0.725768       -19.7492
  10   1.0000      -0.663742       -18.0613
  11   1.0000      -0.596983       -16.2447
  12   1.0000      -0.596946       -16.2437
  13   1.0000      -0.568242       -15.4626
  14   1.0000      -0.568123       -15.4594
  15   1.0000      -0.547582       -14.9005
  16   0.0000      -0.003635        -0.0989
  17   0.0000       0.081262         2.2112
  18   0.0000       0.106513         2.8984
  19   0.0000       0.106525         2.8987
  20   0.0000       0.132056         3.5934

MULLIKEN ATOMIC CHARGES AND SPIN POPULATIONS
--------------------------------------------
   0 C :    0.524574    0.826135
   1 F :   -0.174691    0.057970
   2 F :   -0.174941    0.057948
   3 F :   -0.174942    0.057948
Sum of atomic charges         :   -0.0000000

LOEWDIN ATOMIC CHARGES AND SPIN POPULATIONS
-------------------------------------------
   0 C :   -0.430553    0.612270
   1 F :    0.144009    0.129297
   2 F :    0.143272    0.129217
   3 F :    0.143272    0.129216

  Mayer bond orders larger than 0.100000
B(  0-C ,  1-F ) :   1.0512 B(  0-C ,  2-F ) :   1.0507 B(  0-C ,  3-F ) :   1.0507

Dispersion correction           -0.000089628
FINAL SINGLE POINT ENERGY      -337.631182576965

DIPOLE MOMENT
-------------
                                X             Y             Z
Electronic contribution:      0.00123      -0.00000      -0.12439
Nuclear contribution   :      0.00012      -0.00000       0.16492
                        -----------------------------------------
Total Dipole Moment    :      0.00135      -0.00000       0.04052
                        -----------------------------------------
Magnitude (a.u.)       :      0.04055
Magnitude (Debye)      :      0.10306

Dispersion correction in the Hessian             ... done   (      0.1 sec)

VIBRATIONAL FREQUENCIES
-----------------------

Scaling factor for frequencies =  1.000000000  (already applied!)

   0:         0.00 cm**-1
   1:         0.00 cm**-1
   2:         0.00 cm**-1
   3:         0.00 cm**-1
   4:         0.00 cm**-1
   5:         0.00 cm**-1
   6:       498.41 cm**-1
   7:       498.67 cm**-1
   8:       686.74 cm**-1
   9:      1071.45 cm**-1
  10:      1300.47 cm**-1
  11:      1302.52 cm**-1

IR SPECTRUM
-----------

 Mode   freq       eps      Int      T**2         TX        TY        TZ
       cm**-1   L/(mol*cm) km/mol    a.u.
----------------------------------------------------------------------------
  6:    498.41   0.000316    1.60  0.000198  (-0.014065 -0.000003 -0.000075)
  7:    498.67   0.000313    1.58  0.000196  (-0.000003  0.013989 -0.000000)
  8:    686.74   0.002401   12.13  0.001091  (-0.000077  0.000000  0.033032)
  9:   1071.45   0.006212   31.39  0.001809  (-0.000782  0.000000 -0.042527)
 10:   1300.47   0.073256  370.20  0.017579  ( 0.000021 -0.132585 -0.000000)
 11:   1302.52   0.073265  370.25  0.017553  (-0.132488 -0.000021  0.000150)

--------------------------
THERMOCHEMISTRY AT 298.15K
--------------------------

Temperature         ... 298.15 K
Pressure            ... 1.00 atm
Total Mass          ... 69.00 AMU

Throughout the following assumptions are being made:
  (1) The electronic state is orbitally nondegenerate
      but the spin degeneracy is treated
  (2) There are no thermally accessible electronically excited states
  (3) Hindered rotations indicated by low frequency modes are not
      treated as such but are treated as vibrations and this may
      cause some error
  (4) All equations used are the standard statistical mechanics
      equations for an ideal gas
  (5) All vibrations are strictly harmonic

freq.     498.41  E(vib)   ...       0.14
freq.     498.67  E(vib)   ...       0.14
freq.     686.74  E(vib)   ...       0.07
freq.    1071.45  E(vib)   ...       0.02
freq.    1300.47  E(vib)   ...       0.01
freq.    1302.52  E(vib)   ...       0.01

------------
INNER ENERGY
------------

The inner energy is: U= E(el) + E(ZPE) + E(vib) + E(rot) + E(trans)
    E(el)   - is the total energy from the electronic structure calculation
              = E(kin-el) + E(nuc-el) + E(el-el) + E(nuc-nuc)
    E(ZPE)  - the the zero temperature vibrational energy from the frequency calculation
    E(vib)  - the the finite temperature correction to E(ZPE) due to population
              of excited vibrational states
    E(rot)  - is the rotational thermal energy
    E(trans)- is the translational thermal energy

Summary of contributions to the inner energy U:
Electronic energy                ...   -337.63118258 Eh
Zero point energy                ...      0.01220702 Eh       7.66 kcal/mol
Thermal vibrational correction   ...      0.00061867 Eh       0.39 kcal/mol
Thermal rotational correction    ...      0.00141627 Eh       0.89 kcal/mol
Thermal translational correction ...      0.00141627 Eh       0.89 kcal/mol
-----------------------------------------------------------------------
Total thermal energy                   -337.61552435 Eh

Summary of corrections to the electronic energy:
(perhaps to be used in another calculation)
Total thermal correction                  0.00345121 Eh       2.17 kcal/mol
Non-thermal (ZPE) correction              0.01220702 Eh       7.66 kcal/mol
-----------------------------------------------------------------------
Total correction                          0.01565823 Eh       9.83 kcal/mol

--------
ENTHALPY
--------

The enthalpy is H = U + kB*T
                kB is Boltzmann's constant
Total free energy                 ...   -337.61552435 Eh
Thermal Enthalpy correction       ...      0.00094421 Eh       0.59 kcal/mol
-----------------------------------------------------------------------
Total Enthalpy                    ...   -337.61458014 Eh

Note: Rotational entropy computed according to Herzberg
Infrared and Raman Spectra, Chapter V,1, Van Nostrand Reinhold, 1945
Point Group:  Cs, Symmetry Number:   1
Rotational constants in cm-1:     0.359600     0.359353     0.184267

Vibrational entropy computed according to the QRRHO of S. Grimme
Chem.Eur.J. 2012 18 9955

-------
ENTROPY
-------

The entropy contributions are T*S = T*(S(el)+S(vib)+S(rot)+S(trans))
     S(el)   - electronic entropy
     S(vib)  - vibrational entropy
     S(rot)  - rotational entropy
     S(trans)- translational entropy
The entropies will be listed as multiplied by the temperature to get
units of energy

Electronic entropy                ...      0.00065446 Eh      0.41 kcal/mol
Vibrational entropy               ...      0.00084214 Eh      0.53 kcal/mol
Rotational entropy                ...      0.01127529 Eh      7.08 kcal/mol
Translational entropy             ...      0.01834582 Eh     11.51 kcal/mol
-----------------------------------------------------------------------
Final entropy term                ...      0.03111770 Eh     19.53 kcal/mol

In case the symmetry of your molecule has not been determined correctly
or in case you have a reason to use a different symmetry number we print
out the resulting rotational entropy values for sn=1,12 :
 --------------------------------------------------------
|  sn= 1 | S(rot)=       0.01127529 Eh      7.08 kcal/mol|
|  sn= 2 | S(rot)=       0.01062083 Eh      6.66 kcal/mol|
|  sn= 3 | S(rot)=       0.01023800 Eh      6.42 kcal/mol|
|  sn= 4 | S(rot)=       0.00996637 Eh      6.25 kcal/mol|
|  sn= 5 | S(rot)=       0.00975569 Eh      6.12 kcal/mol|
|  sn= 6 | S(rot)=       0.00958354 Eh      6.01 kcal/mol|
|  sn= 7 | S(rot)=       0.00943800 Eh      5.92 kcal/mol|
|  sn= 8 | S(rot)=       0.00931192 Eh      5.84 kcal/mol|
|  sn= 9 | S(rot)=       0.00920071 Eh      5.77 kcal/mol|
|  sn=10 | S(rot)=       0.00910123 Eh      5.71 kcal/mol|
|  sn=11 | S(rot)=       0.00901124 Eh      5.65 kcal/mol|
|  sn=12 | S(rot)=       0.00892909 Eh      5.60 kcal/mol|
 --------------------------------------------------------

-------------------
GIBBS FREE ENERGY
-------------------

The Gibbs free energy is G = H - T*S

Total enthalpy                    ...   -337.61458014 Eh
Total entropy correction          ...     -0.03111770 Eh    -19.53 kcal/mol
-----------------------------------------------------------------------
Final Gibbs free energy         ...   -337.64569783 Eh

For completeness - the Gibbs free energy minus the electronic energy
G-E(el)                           ...     -0.01451526 Eh     -9.11 kcal/mol

                             ****ORCA TERMINATED NORMALLY****
TOTAL RUN TIME: 0 days 0 hours 1 minutes 36 seconds 684 msec
