                         Program Version 5.0.4 -  RELEASE  -
|  1> ! UKS TightSCF wB97x-D3 def2-TZVPD xyzfile opt freq
|  2>
|  3> # CH3 radical 109.5 degrees fixed
|  4>
|  5> %maxcore 1000
|  6> %pal
|  7> nprocs 18
|  8> end
|  9>
| 10> %geom Constraints
| 11>         { A * 0 * C }
| 12>     end
| 13> end
| 14> * xyz 0 2
| 15> C 0.00 0.00 0.00
| 16> H 1.0184145589 0.0000000000 -0.3594882283
| 17> H -0.5092072794 0.8819728796 -0.3594882283
| 18> H -0.5092072794 -0.8819728796 -0.3594882283
| 19> **                         ****END OF INPUT****
 Total Charge           Charge          ....    0
 Multiplicity           Mult            ....    2
 Number of Electrons    NEL             ....    9
Dispersion correction           -0.000011601
FINAL SINGLE POINT ENERGY       -39.828261327849
Dispersion correction            ... done
Dispersion correction           -0.000012397
FINAL SINGLE POINT ENERGY       -39.828426638733
Dispersion correction            ... done
                    ***********************HURRAY********************

CARTESIAN COORDINATES (ANGSTROEM)
---------------------------------
  C      0.000005    0.000000    0.002310
  H      1.027133    0.000000   -0.360257
  H     -0.513569    0.889534   -0.360259
  H     -0.513569   -0.889534   -0.360259

 Multiplicity           Mult            ....    2
 Number of Electrons    NEL             ....    9
 Basis Dimension        Dim             ....   64

ORBITAL ENERGIES
----------------
                 SPIN UP ORBITALS
  NO   OCC          E(Eh)            E(eV)
   0   1.0000     -10.293454      -280.0991
   1   1.0000      -0.807970       -21.9860
   2   1.0000      -0.506488       -13.7822
   3   1.0000      -0.506462       -13.7815
   4   1.0000      -0.359032        -9.7698
   5   0.0000       0.075783         2.0622
   6   0.0000       0.161000         4.3810
   7   0.0000       0.161010         4.3813
   8   0.0000       0.196084         5.3357
   9   0.0000       0.196415         5.3447

                 SPIN DOWN ORBITALS
  NO   OCC          E(Eh)            E(eV)
   0   1.0000     -10.282574      -279.8031
   1   1.0000      -0.767979       -20.8978
   2   1.0000      -0.492358       -13.3977
   3   1.0000      -0.492289       -13.3959
   4   0.0000      -0.012356        -0.3362
   5   0.0000       0.084981         2.3124
   6   0.0000       0.165785         4.5112
   7   0.0000       0.165796         4.5115
   8   0.0000       0.199809         5.4371

MULLIKEN ATOMIC CHARGES AND SPIN POPULATIONS
--------------------------------------------
   0 C :   -0.698512    0.886929
   1 H :    0.232585    0.037649
   2 H :    0.232963    0.037712
   3 H :    0.232963    0.037711
Sum of atomic charges         :   -0.0000000

LOEWDIN ATOMIC CHARGES AND SPIN POPULATIONS
-------------------------------------------
   0 C :    0.051279    0.836346
   1 H :   -0.017119    0.054564
   2 H :   -0.017080    0.054545
   3 H :   -0.017080    0.054545

  Mayer bond orders larger than 0.100000
B(  0-C ,  1-H ) :   0.9888 B(  0-C ,  2-H ) :   0.9882 B(  0-C ,  3-H ) :   0.9882

Dispersion correction           -0.000012421
FINAL SINGLE POINT ENERGY       -39.828426773008

DIPOLE MOMENT
-------------
                                X             Y             Z
Electronic contribution:      0.00016       0.00000       0.56740
Nuclear contribution   :     -0.00001      -0.00000      -0.81521
                        -----------------------------------------
Total Dipole Moment    :      0.00014      -0.00000      -0.24781
                        -----------------------------------------
Magnitude (a.u.)       :      0.24781
Magnitude (Debye)      :      0.62989

Dispersion correction in the Hessian             ... done   (      0.1 sec)

VIBRATIONAL FREQUENCIES
-----------------------

Scaling factor for frequencies =  1.000000000  (already applied!)

   0:         0.00 cm**-1
   1:         0.00 cm**-1
   2:         0.00 cm**-1
   3:         0.00 cm**-1
   4:         0.00 cm**-1
   5:         0.00 cm**-1
   6:      1138.23 cm**-1
   7:      1417.77 cm**-1
   8:      1418.26 cm**-1
   9:      3079.16 cm**-1
  10:      3190.97 cm**-1
  11:      3191.05 cm**-1

IR SPECTRUM
-----------

 Mode   freq       eps      Int      T**2         TX        TY        TZ
       cm**-1   L/(mol*cm) km/mol    a.u.
----------------------------------------------------------------------------
  6:   1138.23   0.003958   20.00  0.001085  (-0.000068 -0.000000  0.032943)
  7:   1417.77   0.000639    3.23  0.000141  (-0.000001 -0.011857 -0.000000)
  8:   1418.26   0.000629    3.18  0.000139  ( 0.011761 -0.000001  0.000438)
  9:   3079.16   0.000016    0.08  0.000002  (-0.000037 -0.000000 -0.001267)
 10:   3190.97   0.004149   20.97  0.000406  (-0.000078 -0.020144  0.000000)
 11:   3191.05   0.004078   20.61  0.000399  (-0.019970  0.000079  0.000028)

--------------------------
THERMOCHEMISTRY AT 298.15K
--------------------------

Temperature         ... 298.15 K
Pressure            ... 1.00 atm
Total Mass          ... 15.03 AMU

Throughout the following assumptions are being made:
  (1) The electronic state is orbitally nondegenerate
      but the spin degeneracy is treated
  (2) There are no thermally accessible electronically excited states
  (3) Hindered rotations indicated by low frequency modes are not
      treated as such but are treated as vibrations and this may
      cause some error
  (4) All equations used are the standard statistical mechanics
      equations for an ideal gas
  (5) All vibrations are strictly harmonic

freq.    1138.23  E(vib)   ...       0.01
freq.    1417.77  E(vib)   ...       0.00
freq.    1418.26  E(vib)   ...       0.00
freq.    3079.16  E(vib)   ...       0.00
freq.    3190.97  E(vib)   ...       0.00
freq.    3191.05  E(vib)   ...       0.00

------------
INNER ENERGY
------------

The inner energy is: U= E(el) + E(ZPE) + E(vib) + E(rot) + E(trans)
    E(el)   - is the total energy from the electronic structure calculation
              = E(kin-el) + E(nuc-el) + E(el-el) + E(nuc-nuc)
    E(ZPE)  - the the zero temperature vibrational energy from the frequency calculation
    E(vib)  - the the finite temperature correction to E(ZPE) due to population
              of excited vibrational states
    E(rot)  - is the rotational thermal energy
    E(trans)- is the translational thermal energy

Summary of contributions to the inner energy U:
Electronic energy                ...    -39.82842677 Eh
Zero point energy                ...      0.03060819 Eh      19.21 kcal/mol
Thermal vibrational correction   ...      0.00003526 Eh       0.02 kcal/mol
Thermal rotational correction    ...      0.00141627 Eh       0.89 kcal/mol
Thermal translational correction ...      0.00141627 Eh       0.89 kcal/mol
-----------------------------------------------------------------------
Total thermal energy                    -39.79495078 Eh

Summary of corrections to the electronic energy:
(perhaps to be used in another calculation)
Total thermal correction                  0.00286780 Eh       1.80 kcal/mol
Non-thermal (ZPE) correction              0.03060819 Eh      19.21 kcal/mol
-----------------------------------------------------------------------
Total correction                          0.03347599 Eh      21.01 kcal/mol

--------
ENTHALPY
--------

The enthalpy is H = U + kB*T
                kB is Boltzmann's constant
Total free energy                 ...    -39.79495078 Eh
Thermal Enthalpy correction       ...      0.00094421 Eh       0.59 kcal/mol
-----------------------------------------------------------------------
Total Enthalpy                    ...    -39.79400657 Eh

Note: Rotational entropy computed according to Herzberg
Infrared and Raman Spectra, Chapter V,1, Van Nostrand Reinhold, 1945
Point Group:  C3v, Symmetry Number:   3
Rotational constants in cm-1:     8.813366     8.813207     5.283914

Vibrational entropy computed according to the QRRHO of S. Grimme
Chem.Eur.J. 2012 18 9955

-------
ENTROPY
-------

The entropy contributions are T*S = T*(S(el)+S(vib)+S(rot)+S(trans))
     S(el)   - electronic entropy
     S(vib)  - vibrational entropy
     S(rot)  - rotational entropy
     S(trans)- translational entropy
The entropies will be listed as multiplied by the temperature to get
units of energy

Electronic entropy                ...      0.00065446 Eh      0.41 kcal/mol
Vibrational entropy               ...      0.00004118 Eh      0.03 kcal/mol
Rotational entropy                ...      0.00563286 Eh      3.53 kcal/mol
Translational entropy             ...      0.01618771 Eh     10.16 kcal/mol
-----------------------------------------------------------------------
Final entropy term                ...      0.02251621 Eh     14.13 kcal/mol

In case the symmetry of your molecule has not been determined correctly
or in case you have a reason to use a different symmetry number we print
out the resulting rotational entropy values for sn=1,12 :
 --------------------------------------------------------
|  sn= 1 | S(rot)=       0.00667015 Eh      4.19 kcal/mol|
|  sn= 2 | S(rot)=       0.00601570 Eh      3.77 kcal/mol|
|  sn= 3 | S(rot)=       0.00563286 Eh      3.53 kcal/mol|
|  sn= 4 | S(rot)=       0.00536124 Eh      3.36 kcal/mol|
|  sn= 5 | S(rot)=       0.00515055 Eh      3.23 kcal/mol|
|  sn= 6 | S(rot)=       0.00497841 Eh      3.12 kcal/mol|
|  sn= 7 | S(rot)=       0.00483286 Eh      3.03 kcal/mol|
|  sn= 8 | S(rot)=       0.00470678 Eh      2.95 kcal/mol|
|  sn= 9 | S(rot)=       0.00459558 Eh      2.88 kcal/mol|
|  sn=10 | S(rot)=       0.00449610 Eh      2.82 kcal/mol|
|  sn=11 | S(rot)=       0.00440611 Eh      2.76 kcal/mol|
|  sn=12 | S(rot)=       0.00432395 Eh      2.71 kcal/mol|
 --------------------------------------------------------

-------------------
GIBBS FREE ENERGY
-------------------

The Gibbs free energy is G = H - T*S

Total enthalpy                    ...    -39.79400657 Eh
Total entropy correction          ...     -0.02251621 Eh    -14.13 kcal/mol
-----------------------------------------------------------------------
Final Gibbs free energy         ...    -39.81652278 Eh

For completeness - the Gibbs free energy minus the electronic energy
G-E(el)                           ...      0.01190399 Eh      7.47 kcal/mol

                             ****ORCA TERMINATED NORMALLY****
TOTAL RUN TIME: 0 days 0 hours 1 minutes 25 seconds 803 msec
