                         Program Version 5.0.4 -  RELEASE  -
|  1> ! UKS TightSCF wB97x-D3 def2-TZVPD xyzfile opt freq
|  2>
|  3> # CH3 radical 118.0 degrees fixed
|  4>
|  5> %maxcore 1000
|  6> %pal
|  7> nprocs 18
|  8> end
|  9>
| 10> %geom Constraints
| 11>         { A * 0 * C }
| 12>     end
| 13> end
| 14> * xyz 0 2
| 15> C 0.00 0.00 0.00
| 16> H 1.0689532671 0.0000000000 -0.1540743742
| 17> H -0.5344766335 0.9257406848 -0.1540743742
| 18> H -0.5344766335 -0.9257406848 -0.1540743742
| 19> **                         ****END OF INPUT****
 Total Charge           Charge          ....    0
 Multiplicity           Mult            ....    2
 Number of Electrons    NEL             ....    9
Dispersion correction           -0.000016996
FINAL SINGLE POINT ENERGY       -39.838335013374
Dispersion correction            ... done
Dispersion correction           -0.000017184
FINAL SINGLE POINT ENERGY       -39.838339476121
Dispersion correction            ... done
                    ***********************HURRAY********************

CARTESIAN COORDINATES (ANGSTROEM)
---------------------------------
  C     -0.000002   -0.000000    0.000160
  H      1.070436   -0.000000   -0.154128
  H     -0.535217    0.927019   -0.154128
  H     -0.535217   -0.927019   -0.154128

 Multiplicity           Mult            ....    2
 Number of Electrons    NEL             ....    9
 Basis Dimension        Dim             ....   64

ORBITAL ENERGIES
----------------
                 SPIN UP ORBITALS
  NO   OCC          E(Eh)            E(eV)
   0   1.0000     -10.286946      -279.9220
   1   1.0000      -0.803265       -21.8579
   2   1.0000      -0.518659       -14.1134
   3   1.0000      -0.518658       -14.1134
   4   1.0000      -0.332909        -9.0589
   5   0.0000       0.076312         2.0765
   6   0.0000       0.161212         4.3868
   7   0.0000       0.161212         4.3868
   8   0.0000       0.198681         5.4064
   9   0.0000       0.203093         5.5265

                 SPIN DOWN ORBITALS
  NO   OCC          E(Eh)            E(eV)
   0   1.0000     -10.276743      -279.6444
   1   1.0000      -0.758836       -20.6490
   2   1.0000      -0.505877       -13.7656
   3   1.0000      -0.505832       -13.7644
   4   0.0000       0.006358         0.1730
   5   0.0000       0.086386         2.3507
   6   0.0000       0.165063         4.4916
   7   0.0000       0.165072         4.4918
   8   0.0000       0.203591         5.5400

MULLIKEN ATOMIC CHARGES AND SPIN POPULATIONS
--------------------------------------------
   0 C :   -0.739239    0.914122
   1 H :    0.246326    0.028534
   2 H :    0.246454    0.028672
   3 H :    0.246459    0.028672
Sum of atomic charges         :   -0.0000000

LOEWDIN ATOMIC CHARGES AND SPIN POPULATIONS
-------------------------------------------
   0 C :    0.059092    0.835463
   1 H :   -0.019706    0.054845
   2 H :   -0.019693    0.054846
   3 H :   -0.019693    0.054846

  Mayer bond orders larger than 0.100000
B(  0-C ,  1-H ) :   0.9536 B(  0-C ,  2-H ) :   0.9533 B(  0-C ,  3-H ) :   0.9533

Dispersion correction           -0.000017184
FINAL SINGLE POINT ENERGY       -39.838339270274

DIPOLE MOMENT
-------------
                                X             Y             Z
Electronic contribution:     -0.00009       0.00000       0.22213
Nuclear contribution   :      0.00001       0.00000      -0.34691
                        -----------------------------------------
Total Dipole Moment    :     -0.00008       0.00000      -0.12477
                        -----------------------------------------
Magnitude (a.u.)       :      0.12477
Magnitude (Debye)      :      0.31715

Dispersion correction in the Hessian             ... done   (      0.1 sec)

VIBRATIONAL FREQUENCIES
-----------------------

Scaling factor for frequencies =  1.000000000  (already applied!)

   0:         0.00 cm**-1
   1:         0.00 cm**-1
   2:         0.00 cm**-1
   3:         0.00 cm**-1
   4:         0.00 cm**-1
   5:         0.00 cm**-1
   6:       733.08 cm**-1
   7:      1410.01 cm**-1
   8:      1413.57 cm**-1
   9:      3120.51 cm**-1
  10:      3288.64 cm**-1
  11:      3289.67 cm**-1

IR SPECTRUM
-----------

 Mode   freq       eps      Int      T**2         TX        TY        TZ
       cm**-1   L/(mol*cm) km/mol    a.u.
----------------------------------------------------------------------------
  6:    733.08   0.011759   59.42  0.005006  ( 0.000157 -0.000000 -0.070750)
  7:   1410.01   0.000549    2.77  0.000122  ( 0.011024 -0.000000 -0.000099)
  8:   1413.57   0.000561    2.83  0.000124  (-0.000000 -0.011126 -0.000000)
  9:   3120.51   0.000003    0.02  0.000000  ( 0.000113 -0.000000 -0.000542)
 10:   3288.64   0.001408    7.12  0.000134  ( 0.011559  0.000000  0.000020)
 11:   3289.67   0.001378    6.96  0.000131  (-0.000000  0.011433 -0.000000)

--------------------------
THERMOCHEMISTRY AT 298.15K
--------------------------

Temperature         ... 298.15 K
Pressure            ... 1.00 atm
Total Mass          ... 15.03 AMU

Throughout the following assumptions are being made:
  (1) The electronic state is orbitally nondegenerate
      but the spin degeneracy is treated
  (2) There are no thermally accessible electronically excited states
  (3) Hindered rotations indicated by low frequency modes are not
      treated as such but are treated as vibrations and this may
      cause some error
  (4) All equations used are the standard statistical mechanics
      equations for an ideal gas
  (5) All vibrations are strictly harmonic

freq.     733.08  E(vib)   ...       0.06
freq.    1410.01  E(vib)   ...       0.00
freq.    1413.57  E(vib)   ...       0.00
freq.    3120.51  E(vib)   ...       0.00
freq.    3288.64  E(vib)   ...       0.00
freq.    3289.67  E(vib)   ...       0.00

------------
INNER ENERGY
------------

The inner energy is: U= E(el) + E(ZPE) + E(vib) + E(rot) + E(trans)
    E(el)   - is the total energy from the electronic structure calculation
              = E(kin-el) + E(nuc-el) + E(el-el) + E(nuc-nuc)
    E(ZPE)  - the the zero temperature vibrational energy from the frequency calculation
    E(vib)  - the the finite temperature correction to E(ZPE) due to population
              of excited vibrational states
    E(rot)  - is the rotational thermal energy
    E(trans)- is the translational thermal energy

Summary of contributions to the inner energy U:
Electronic energy                ...    -39.83833927 Eh
Zero point energy                ...      0.03019819 Eh      18.95 kcal/mol
Thermal vibrational correction   ...      0.00011423 Eh       0.07 kcal/mol
Thermal rotational correction    ...      0.00141627 Eh       0.89 kcal/mol
Thermal translational correction ...      0.00141627 Eh       0.89 kcal/mol
-----------------------------------------------------------------------
Total thermal energy                    -39.80519430 Eh

Summary of corrections to the electronic energy:
(perhaps to be used in another calculation)
Total thermal correction                  0.00294678 Eh       1.85 kcal/mol
Non-thermal (ZPE) correction              0.03019819 Eh      18.95 kcal/mol
-----------------------------------------------------------------------
Total correction                          0.03314497 Eh      20.80 kcal/mol

--------
ENTHALPY
--------

The enthalpy is H = U + kB*T
                kB is Boltzmann's constant
Total free energy                 ...    -39.80519430 Eh
Thermal Enthalpy correction       ...      0.00094421 Eh       0.59 kcal/mol
-----------------------------------------------------------------------
Total Enthalpy                    ...    -39.80425009 Eh

Note: Rotational entropy computed according to Herzberg
Infrared and Raman Spectra, Chapter V,1, Van Nostrand Reinhold, 1945
Point Group:  C3v, Symmetry Number:   3
Rotational constants in cm-1:     9.417759     9.417657     4.865156

Vibrational entropy computed according to the QRRHO of S. Grimme
Chem.Eur.J. 2012 18 9955

-------
ENTROPY
-------

The entropy contributions are T*S = T*(S(el)+S(vib)+S(rot)+S(trans))
     S(el)   - electronic entropy
     S(vib)  - vibrational entropy
     S(rot)  - rotational entropy
     S(trans)- translational entropy
The entropies will be listed as multiplied by the temperature to get
units of energy

Electronic entropy                ...      0.00065446 Eh      0.41 kcal/mol
Vibrational entropy               ...      0.00014428 Eh      0.09 kcal/mol
Rotational entropy                ...      0.00560922 Eh      3.52 kcal/mol
Translational entropy             ...      0.01618771 Eh     10.16 kcal/mol
-----------------------------------------------------------------------
Final entropy term                ...      0.02259566 Eh     14.18 kcal/mol

In case the symmetry of your molecule has not been determined correctly
or in case you have a reason to use a different symmetry number we print
out the resulting rotational entropy values for sn=1,12 :
 --------------------------------------------------------
|  sn= 1 | S(rot)=       0.00664650 Eh      4.17 kcal/mol|
|  sn= 2 | S(rot)=       0.00599205 Eh      3.76 kcal/mol|
|  sn= 3 | S(rot)=       0.00560922 Eh      3.52 kcal/mol|
|  sn= 4 | S(rot)=       0.00533759 Eh      3.35 kcal/mol|
|  sn= 5 | S(rot)=       0.00512690 Eh      3.22 kcal/mol|
|  sn= 6 | S(rot)=       0.00495476 Eh      3.11 kcal/mol|
|  sn= 7 | S(rot)=       0.00480921 Eh      3.02 kcal/mol|
|  sn= 8 | S(rot)=       0.00468313 Eh      2.94 kcal/mol|
|  sn= 9 | S(rot)=       0.00457193 Eh      2.87 kcal/mol|
|  sn=10 | S(rot)=       0.00447245 Eh      2.81 kcal/mol|
|  sn=11 | S(rot)=       0.00438246 Eh      2.75 kcal/mol|
|  sn=12 | S(rot)=       0.00430030 Eh      2.70 kcal/mol|
 --------------------------------------------------------

-------------------
GIBBS FREE ENERGY
-------------------

The Gibbs free energy is G = H - T*S

Total enthalpy                    ...    -39.80425009 Eh
Total entropy correction          ...     -0.02259566 Eh    -14.18 kcal/mol
-----------------------------------------------------------------------
Final Gibbs free energy         ...    -39.82684575 Eh

For completeness - the Gibbs free energy minus the electronic energy
G-E(el)                           ...      0.01149352 Eh      7.21 kcal/mol

                             ****ORCA TERMINATED NORMALLY****
TOTAL RUN TIME: 0 days 0 hours 0 minutes 53 seconds 974 msec
