                         Program Version 5.0.4 -  RELEASE  -
|  1> ! UKS TightSCF wB97x-D3 def2-TZVPD xyzfile opt freq
|  2>
|  3> # CH3 radical 114.5 degrees fixed
|  4>
|  5> %maxcore 1000
|  6> %pal
|  7> nprocs 18
|  8> end
|  9>
| 10> %geom Constraints
| 11>         { A * 0 * C }
| 12>     end
| 13> end
| 14> * xyz 0 2
| 15> C 0.00 0.00 0.00
| 16> H 1.0488400572 0.0000000000 -0.2575549155
| 17> H -0.5244200286 0.9083221340 -0.2575549155
| 18> H -0.5244200286 -0.9083221340 -0.2575549155
| 19> **                         ****END OF INPUT****
 Total Charge           Charge          ....    0
 Multiplicity           Mult            ....    2
 Number of Electrons    NEL             ....    9
Dispersion correction           -0.000014631
FINAL SINGLE POINT ENERGY       -39.835098095992
Dispersion correction            ... done
Dispersion correction           -0.000015151
FINAL SINGLE POINT ENERGY       -39.835143370282
Dispersion correction            ... done
                    ***********************HURRAY********************

CARTESIAN COORDINATES (ANGSTROEM)
---------------------------------
  C     -0.000007    0.000000    0.000859
  H      1.053513    0.000000   -0.257842
  H     -0.526753    0.912353   -0.257841
  H     -0.526753   -0.912353   -0.257841

 Multiplicity           Mult            ....    2
 Number of Electrons    NEL             ....    9
 Basis Dimension        Dim             ....   64

ORBITAL ENERGIES
----------------
                 SPIN UP ORBITALS
  NO   OCC          E(Eh)            E(eV)
   0   1.0000     -10.289670      -279.9962
   1   1.0000      -0.805048       -21.9065
   2   1.0000      -0.513818       -13.9817
   3   1.0000      -0.513792       -13.9810
   4   1.0000      -0.343799        -9.3553
   5   0.0000       0.076134         2.0717
   6   0.0000       0.161169         4.3856
   7   0.0000       0.161178         4.3859
   8   0.0000       0.199559         5.4303
   9   0.0000       0.199568         5.4305

                 SPIN DOWN ORBITALS
  NO   OCC          E(Eh)            E(eV)
   0   1.0000     -10.279187      -279.7109
   1   1.0000      -0.762591       -20.7512
   2   1.0000      -0.500431       -13.6174
   3   1.0000      -0.500396       -13.6165
   4   0.0000      -0.001156        -0.0315
   5   0.0000       0.085872         2.3367
   6   0.0000       0.165509         4.5037
   7   0.0000       0.165519         4.5040
   8   0.0000       0.201191         5.4747

MULLIKEN ATOMIC CHARGES AND SPIN POPULATIONS
--------------------------------------------
   0 C :   -0.718748    0.897925
   1 H :    0.239427    0.033994
   2 H :    0.239662    0.034041
   3 H :    0.239660    0.034040
Sum of atomic charges         :   -0.0000000

LOEWDIN ATOMIC CHARGES AND SPIN POPULATIONS
-------------------------------------------
   0 C :    0.055958    0.835511
   1 H :   -0.018647    0.054845
   2 H :   -0.018655    0.054822
   3 H :   -0.018655    0.054822

  Mayer bond orders larger than 0.100000
B(  0-C ,  1-H ) :   0.9703 B(  0-C ,  2-H ) :   0.9699 B(  0-C ,  3-H ) :   0.9699

Dispersion correction           -0.000015159
FINAL SINGLE POINT ENERGY       -39.835143382982

DIPOLE MOMENT
-------------
                                X             Y             Z
Electronic contribution:      0.00013      -0.00000       0.38729
Nuclear contribution   :      0.00002      -0.00000      -0.58167
                        -----------------------------------------
Total Dipole Moment    :      0.00015      -0.00000      -0.19438
                        -----------------------------------------
Magnitude (a.u.)       :      0.19439
Magnitude (Debye)      :      0.49409

Dispersion correction in the Hessian             ... done   (      0.1 sec)

VIBRATIONAL FREQUENCIES
-----------------------

Scaling factor for frequencies =  1.000000000  (already applied!)

   0:         0.00 cm**-1
   1:         0.00 cm**-1
   2:         0.00 cm**-1
   3:         0.00 cm**-1
   4:         0.00 cm**-1
   5:         0.00 cm**-1
   6:       966.00 cm**-1
   7:      1418.33 cm**-1
   8:      1425.27 cm**-1
   9:      3101.05 cm**-1
  10:      3247.13 cm**-1
  11:      3247.75 cm**-1

IR SPECTRUM
-----------

 Mode   freq       eps      Int      T**2         TX        TY        TZ
       cm**-1   L/(mol*cm) km/mol    a.u.
----------------------------------------------------------------------------
  6:    966.00   0.007360   37.19  0.002378  (-0.000100  0.000000  0.048760)
  7:   1418.33   0.000582    2.94  0.000128  ( 0.011306 -0.000000 -0.000392)
  8:   1425.27   0.000575    2.91  0.000126  ( 0.000000  0.011225 -0.000000)
  9:   3101.05   0.000010    0.05  0.000001  ( 0.000074 -0.000000 -0.000989)
 10:   3247.13   0.002460   12.43  0.000236  (-0.015377 -0.000005 -0.000010)
 11:   3247.75   0.002461   12.44  0.000236  (-0.000005  0.015377 -0.000000)

--------------------------
THERMOCHEMISTRY AT 298.15K
--------------------------

Temperature         ... 298.15 K
Pressure            ... 1.00 atm
Total Mass          ... 15.03 AMU

Throughout the following assumptions are being made:
  (1) The electronic state is orbitally nondegenerate
      but the spin degeneracy is treated
  (2) There are no thermally accessible electronically excited states
  (3) Hindered rotations indicated by low frequency modes are not
      treated as such but are treated as vibrations and this may
      cause some error
  (4) All equations used are the standard statistical mechanics
      equations for an ideal gas
  (5) All vibrations are strictly harmonic

freq.     966.00  E(vib)   ...       0.03
freq.    1418.33  E(vib)   ...       0.00
freq.    1425.27  E(vib)   ...       0.00
freq.    3101.05  E(vib)   ...       0.00
freq.    3247.13  E(vib)   ...       0.00
freq.    3247.75  E(vib)   ...       0.00

------------
INNER ENERGY
------------

The inner energy is: U= E(el) + E(ZPE) + E(vib) + E(rot) + E(trans)
    E(el)   - is the total energy from the electronic structure calculation
              = E(kin-el) + E(nuc-el) + E(el-el) + E(nuc-nuc)
    E(ZPE)  - the the zero temperature vibrational energy from the frequency calculation
    E(vib)  - the the finite temperature correction to E(ZPE) due to population
              of excited vibrational states
    E(rot)  - is the rotational thermal energy
    E(trans)- is the translational thermal energy

Summary of contributions to the inner energy U:
Electronic energy                ...    -39.83514338 Eh
Zero point energy                ...      0.03054004 Eh      19.16 kcal/mol
Thermal vibrational correction   ...      0.00005560 Eh       0.03 kcal/mol
Thermal rotational correction    ...      0.00141627 Eh       0.89 kcal/mol
Thermal translational correction ...      0.00141627 Eh       0.89 kcal/mol
-----------------------------------------------------------------------
Total thermal energy                    -39.80171519 Eh

Summary of corrections to the electronic energy:
(perhaps to be used in another calculation)
Total thermal correction                  0.00288815 Eh       1.81 kcal/mol
Non-thermal (ZPE) correction              0.03054004 Eh      19.16 kcal/mol
-----------------------------------------------------------------------
Total correction                          0.03342819 Eh      20.98 kcal/mol

--------
ENTHALPY
--------

The enthalpy is H = U + kB*T
                kB is Boltzmann's constant
Total free energy                 ...    -39.80171519 Eh
Thermal Enthalpy correction       ...      0.00094421 Eh       0.59 kcal/mol
-----------------------------------------------------------------------
Total Enthalpy                    ...    -39.80077099 Eh

Note: Rotational entropy computed according to Herzberg
Infrared and Raman Spectra, Chapter V,1, Van Nostrand Reinhold, 1945
Point Group:  C3v, Symmetry Number:   3
Rotational constants in cm-1:     9.162904     9.162639     5.022777

Vibrational entropy computed according to the QRRHO of S. Grimme
Chem.Eur.J. 2012 18 9955

-------
ENTROPY
-------

The entropy contributions are T*S = T*(S(el)+S(vib)+S(rot)+S(trans))
     S(el)   - electronic entropy
     S(vib)  - vibrational entropy
     S(rot)  - rotational entropy
     S(trans)- translational entropy
The entropies will be listed as multiplied by the temperature to get
units of energy

Electronic entropy                ...      0.00065446 Eh      0.41 kcal/mol
Vibrational entropy               ...      0.00006658 Eh      0.04 kcal/mol
Rotational entropy                ...      0.00562007 Eh      3.53 kcal/mol
Translational entropy             ...      0.01618771 Eh     10.16 kcal/mol
-----------------------------------------------------------------------
Final entropy term                ...      0.02252882 Eh     14.14 kcal/mol

In case the symmetry of your molecule has not been determined correctly
or in case you have a reason to use a different symmetry number we print
out the resulting rotational entropy values for sn=1,12 :
 --------------------------------------------------------
|  sn= 1 | S(rot)=       0.00665736 Eh      4.18 kcal/mol|
|  sn= 2 | S(rot)=       0.00600291 Eh      3.77 kcal/mol|
|  sn= 3 | S(rot)=       0.00562007 Eh      3.53 kcal/mol|
|  sn= 4 | S(rot)=       0.00534845 Eh      3.36 kcal/mol|
|  sn= 5 | S(rot)=       0.00513776 Eh      3.22 kcal/mol|
|  sn= 6 | S(rot)=       0.00496562 Eh      3.12 kcal/mol|
|  sn= 7 | S(rot)=       0.00482007 Eh      3.02 kcal/mol|
|  sn= 8 | S(rot)=       0.00469399 Eh      2.95 kcal/mol|
|  sn= 9 | S(rot)=       0.00458279 Eh      2.88 kcal/mol|
|  sn=10 | S(rot)=       0.00448331 Eh      2.81 kcal/mol|
|  sn=11 | S(rot)=       0.00439332 Eh      2.76 kcal/mol|
|  sn=12 | S(rot)=       0.00431116 Eh      2.71 kcal/mol|
 --------------------------------------------------------

-------------------
GIBBS FREE ENERGY
-------------------

The Gibbs free energy is G = H - T*S

Total enthalpy                    ...    -39.80077099 Eh
Total entropy correction          ...     -0.02252882 Eh    -14.14 kcal/mol
-----------------------------------------------------------------------
Final Gibbs free energy         ...    -39.82329980 Eh

For completeness - the Gibbs free energy minus the electronic energy
G-E(el)                           ...      0.01184358 Eh      7.43 kcal/mol

                             ****ORCA TERMINATED NORMALLY****
TOTAL RUN TIME: 0 days 0 hours 1 minutes 22 seconds 5 msec
