                         Program Version 5.0.4 -  RELEASE  -
|  1> ! UKS TightSCF wB97x-D3 def2-TZVPD xyzfile opt freq
|  2>
|  3> # CH3 radical 97.0 degrees fixed
|  4>
|  5> %maxcore 1000
|  6> %pal
|  7> nprocs 18
|  8> end
|  9>
| 10> %geom Constraints
| 11>         { A * 0 * C }
| 12>     end
| 13> end
| 14> * xyz 0 2
| 15> C 0.00 0.00 0.00
| 16> H 0.9340051399 0.0000000000 -0.5422493878
| 17> H -0.4670025700 0.8088721785 -0.5422493878
| 18> H -0.4670025700 -0.8088721785 -0.5422493878
| 19> **                         ****END OF INPUT****
 Total Charge           Charge          ....    0
 Multiplicity           Mult            ....    2
 Number of Electrons    NEL             ....    9
Dispersion correction           -0.000005888
FINAL SINGLE POINT ENERGY       -39.799765687613
Dispersion correction            ... done
Dispersion correction           -0.000006775
FINAL SINGLE POINT ENERGY       -39.800523815932
Dispersion correction            ... done
Dispersion correction           -0.000006829
FINAL SINGLE POINT ENERGY       -39.800526225539
Dispersion correction            ... done
                    ***********************HURRAY********************

CARTESIAN COORDINATES (ANGSTROEM)
---------------------------------
  C      0.000009    0.000000    0.007611
  H      0.951472    0.000000   -0.544783
  H     -0.475741    0.824016   -0.544788
  H     -0.475741   -0.824016   -0.544788

 Multiplicity           Mult            ....    2
 Number of Electrons    NEL             ....    9
 Basis Dimension        Dim             ....   64

ORBITAL ENERGIES
----------------
                 SPIN UP ORBITALS
  NO   OCC          E(Eh)            E(eV)
   0   1.0000     -10.303195      -280.3642
   1   1.0000      -0.817857       -22.2550
   2   1.0000      -0.486363       -13.2346
   3   1.0000      -0.486339       -13.2340
   4   1.0000      -0.395544       -10.7633
   5   0.0000       0.073918         2.0114
   6   0.0000       0.160031         4.3547
   7   0.0000       0.160036         4.3548
   8   0.0000       0.170906         4.6506
   9   0.0000       0.193179         5.2567

                 SPIN DOWN ORBITALS
  NO   OCC          E(Eh)            E(eV)
   0   1.0000     -10.291311      -280.0408
   1   1.0000      -0.782941       -21.3049
   2   1.0000      -0.470549       -12.8043
   3   1.0000      -0.470540       -12.8040
   4   0.0000      -0.041485        -1.1289
   5   0.0000       0.081868         2.2277
   6   0.0000       0.165682         4.5084
   7   0.0000       0.165684         4.5085
   8   0.0000       0.200002         5.4423

MULLIKEN ATOMIC CHARGES AND SPIN POPULATIONS
--------------------------------------------
   0 C :   -0.659177    0.900275
   1 H :    0.219443    0.033275
   2 H :    0.219867    0.033225
   3 H :    0.219867    0.033224
Sum of atomic charges         :   -0.0000000

LOEWDIN ATOMIC CHARGES AND SPIN POPULATIONS
-------------------------------------------
   0 C :    0.039997    0.841641
   1 H :   -0.013367    0.052792
   2 H :   -0.013315    0.052784
   3 H :   -0.013315    0.052784

  Mayer bond orders larger than 0.100000
B(  0-C ,  1-H ) :   1.0219 B(  0-C ,  2-H ) :   1.0213 B(  0-C ,  3-H ) :   1.0213

Dispersion correction           -0.000006832
FINAL SINGLE POINT ENERGY       -39.800526235566

DIPOLE MOMENT
-------------
                                X             Y             Z
Electronic contribution:      0.00010      -0.00000       0.92839
Nuclear contribution   :     -0.00003      -0.00000      -1.24203
                        -----------------------------------------
Total Dipole Moment    :      0.00007      -0.00000      -0.31364
                        -----------------------------------------
Magnitude (a.u.)       :      0.31364
Magnitude (Debye)      :      0.79721

Dispersion correction in the Hessian             ... done   (      0.1 sec)

VIBRATIONAL FREQUENCIES
-----------------------

Scaling factor for frequencies =  1.000000000  (already applied!)

   0:         0.00 cm**-1
   1:         0.00 cm**-1
   2:         0.00 cm**-1
   3:         0.00 cm**-1
   4:         0.00 cm**-1
   5:         0.00 cm**-1
   6:      1357.02 cm**-1
   7:      1380.49 cm**-1
   8:      1381.74 cm**-1
   9:      3038.76 cm**-1
  10:      3054.22 cm**-1
  11:      3054.42 cm**-1

IR SPECTRUM
-----------

 Mode   freq       eps      Int      T**2         TX        TY        TZ
       cm**-1   L/(mol*cm) km/mol    a.u.
----------------------------------------------------------------------------
  6:   1357.02   0.001331    6.73  0.000306  ( 0.001229  0.000000 -0.017454)
  7:   1380.49   0.001089    5.50  0.000246  (-0.000002  0.015691  0.000000)
  8:   1381.74   0.001120    5.66  0.000253  (-0.015856 -0.000002 -0.001237)
  9:   3038.76   0.000016    0.08  0.000002  ( 0.000441 -0.000000 -0.001211)
 10:   3054.22   0.008209   41.49  0.000839  (-0.028962 -0.000020 -0.000059)
 11:   3054.42   0.008376   42.33  0.000856  (-0.000020  0.029254 -0.000000)

--------------------------
THERMOCHEMISTRY AT 298.15K
--------------------------

Temperature         ... 298.15 K
Pressure            ... 1.00 atm
Total Mass          ... 15.03 AMU

Throughout the following assumptions are being made:
  (1) The electronic state is orbitally nondegenerate
      but the spin degeneracy is treated
  (2) There are no thermally accessible electronically excited states
  (3) Hindered rotations indicated by low frequency modes are not
      treated as such but are treated as vibrations and this may
      cause some error
  (4) All equations used are the standard statistical mechanics
      equations for an ideal gas
  (5) All vibrations are strictly harmonic

freq.    1357.02  E(vib)   ...       0.01
freq.    1380.49  E(vib)   ...       0.01
freq.    1381.74  E(vib)   ...       0.01
freq.    3038.76  E(vib)   ...       0.00
freq.    3054.22  E(vib)   ...       0.00
freq.    3054.42  E(vib)   ...       0.00

------------
INNER ENERGY
------------

The inner energy is: U= E(el) + E(ZPE) + E(vib) + E(rot) + E(trans)
    E(el)   - is the total energy from the electronic structure calculation
              = E(kin-el) + E(nuc-el) + E(el-el) + E(nuc-nuc)
    E(ZPE)  - the the zero temperature vibrational energy from the frequency calculation
    E(vib)  - the the finite temperature correction to E(ZPE) due to population
              of excited vibrational states
    E(rot)  - is the rotational thermal energy
    E(trans)- is the translational thermal energy

Summary of contributions to the inner energy U:
Electronic energy                ...    -39.80052624 Eh
Zero point energy                ...      0.03022364 Eh      18.97 kcal/mol
Thermal vibrational correction   ...      0.00002496 Eh       0.02 kcal/mol
Thermal rotational correction    ...      0.00141627 Eh       0.89 kcal/mol
Thermal translational correction ...      0.00141627 Eh       0.89 kcal/mol
-----------------------------------------------------------------------
Total thermal energy                    -39.76744509 Eh

Summary of corrections to the electronic energy:
(perhaps to be used in another calculation)
Total thermal correction                  0.00285750 Eh       1.79 kcal/mol
Non-thermal (ZPE) correction              0.03022364 Eh      18.97 kcal/mol
-----------------------------------------------------------------------
Total correction                          0.03308114 Eh      20.76 kcal/mol

--------
ENTHALPY
--------

The enthalpy is H = U + kB*T
                kB is Boltzmann's constant
Total free energy                 ...    -39.76744509 Eh
Thermal Enthalpy correction       ...      0.00094421 Eh       0.59 kcal/mol
-----------------------------------------------------------------------
Total Enthalpy                    ...    -39.76650089 Eh

Note: Rotational entropy computed according to Herzberg
Infrared and Raman Spectra, Chapter V,1, Van Nostrand Reinhold, 1945
Point Group:  C3v, Symmetry Number:   3
Rotational constants in cm-1:     8.004662     8.004477     6.157613

Vibrational entropy computed according to the QRRHO of S. Grimme
Chem.Eur.J. 2012 18 9955

-------
ENTROPY
-------

The entropy contributions are T*S = T*(S(el)+S(vib)+S(rot)+S(trans))
     S(el)   - electronic entropy
     S(vib)  - vibrational entropy
     S(rot)  - rotational entropy
     S(trans)- translational entropy
The entropies will be listed as multiplied by the temperature to get
units of energy

Electronic entropy                ...      0.00065446 Eh      0.41 kcal/mol
Vibrational entropy               ...      0.00002873 Eh      0.02 kcal/mol
Rotational entropy                ...      0.00565150 Eh      3.55 kcal/mol
Translational entropy             ...      0.01618771 Eh     10.16 kcal/mol
-----------------------------------------------------------------------
Final entropy term                ...      0.02252239 Eh     14.13 kcal/mol

In case the symmetry of your molecule has not been determined correctly
or in case you have a reason to use a different symmetry number we print
out the resulting rotational entropy values for sn=1,12 :
 --------------------------------------------------------
|  sn= 1 | S(rot)=       0.00668879 Eh      4.20 kcal/mol|
|  sn= 2 | S(rot)=       0.00603433 Eh      3.79 kcal/mol|
|  sn= 3 | S(rot)=       0.00565150 Eh      3.55 kcal/mol|
|  sn= 4 | S(rot)=       0.00537988 Eh      3.38 kcal/mol|
|  sn= 5 | S(rot)=       0.00516919 Eh      3.24 kcal/mol|
|  sn= 6 | S(rot)=       0.00499704 Eh      3.14 kcal/mol|
|  sn= 7 | S(rot)=       0.00485150 Eh      3.04 kcal/mol|
|  sn= 8 | S(rot)=       0.00472542 Eh      2.97 kcal/mol|
|  sn= 9 | S(rot)=       0.00461421 Eh      2.90 kcal/mol|
|  sn=10 | S(rot)=       0.00451473 Eh      2.83 kcal/mol|
|  sn=11 | S(rot)=       0.00442474 Eh      2.78 kcal/mol|
|  sn=12 | S(rot)=       0.00434259 Eh      2.73 kcal/mol|
 --------------------------------------------------------

-------------------
GIBBS FREE ENERGY
-------------------

The Gibbs free energy is G = H - T*S

Total enthalpy                    ...    -39.76650089 Eh
Total entropy correction          ...     -0.02252239 Eh    -14.13 kcal/mol
-----------------------------------------------------------------------
Final Gibbs free energy         ...    -39.78902328 Eh

For completeness - the Gibbs free energy minus the electronic energy
G-E(el)                           ...      0.01150296 Eh      7.22 kcal/mol

                             ****ORCA TERMINATED NORMALLY****
TOTAL RUN TIME: 0 days 0 hours 1 minutes 15 seconds 871 msec
