                         Program Version 5.0.4 -  RELEASE  -
|  1> ! UKS TightSCF wB97x-D3 def2-TZVPD xyzfile opt freq
|  2>
|  3> # CH3 radical 105.5 degrees fixed
|  4>
|  5> %maxcore 1000
|  6> %pal
|  7> nprocs 18
|  8> end
|  9>
| 10> %geom Constraints
| 11>         { A * 0 * C }
| 12>     end
| 13> end
| 14> * xyz 0 2
| 15> C 0.00 0.00 0.00
| 16> H 0.9926754561 0.0000000000 -0.4254355871
| 17> H -0.4963377281 0.8596821627 -0.4254355871
| 18> H -0.4963377281 -0.8596821627 -0.4254355871
| 19> **                         ****END OF INPUT****
 Total Charge           Charge          ....    0
 Multiplicity           Mult            ....    2
 Number of Electrons    NEL             ....    9
Dispersion correction           -0.000009485
FINAL SINGLE POINT ENERGY       -39.820916246233
Dispersion correction            ... done
Dispersion correction           -0.000010381
FINAL SINGLE POINT ENERGY       -39.821224256346
Dispersion correction            ... done
                    ***********************HURRAY********************

CARTESIAN COORDINATES (ANGSTROEM)
---------------------------------
  C      0.000018    0.000000    0.003753
  H      1.004327    0.000000   -0.426682
  H     -0.502172    0.869811   -0.426689
  H     -0.502173   -0.869811   -0.426689

 Multiplicity           Mult            ....    2
 Number of Electrons    NEL             ....    9
 Basis Dimension        Dim             ....   64

ORBITAL ENERGIES
----------------
                 SPIN UP ORBITALS
  NO   OCC          E(Eh)            E(eV)
   0   1.0000     -10.296481      -280.1815
   1   1.0000      -0.810687       -22.0599
   2   1.0000      -0.500314       -13.6142
   3   1.0000      -0.500274       -13.6131
   4   1.0000      -0.370967       -10.0945
   5   0.0000       0.075374         2.0510
   6   0.0000       0.160791         4.3753
   7   0.0000       0.160797         4.3755
   8   0.0000       0.187682         5.1071
   9   0.0000       0.194876         5.3029

                 SPIN DOWN ORBITALS
  NO   OCC          E(Eh)            E(eV)
   0   1.0000     -10.285281      -279.8767
   1   1.0000      -0.772476       -21.0201
   2   1.0000      -0.485590       -13.2136
   3   1.0000      -0.485560       -13.2128
   4   0.0000      -0.021585        -0.5874
   5   0.0000       0.084127         2.2892
   6   0.0000       0.165850         4.5130
   7   0.0000       0.165852         4.5131
   8   0.0000       0.199581         5.4309

MULLIKEN ATOMIC CHARGES AND SPIN POPULATIONS
--------------------------------------------
   0 C :   -0.683830    0.886335
   1 H :    0.227632    0.037832
   2 H :    0.228099    0.037917
   3 H :    0.228099    0.037916
Sum of atomic charges         :   -0.0000000

LOEWDIN ATOMIC CHARGES AND SPIN POPULATIONS
-------------------------------------------
   0 C :    0.047543    0.837631
   1 H :   -0.015901    0.054129
   2 H :   -0.015821    0.054120
   3 H :   -0.015821    0.054120

  Mayer bond orders larger than 0.100000
B(  0-C ,  1-H ) :   1.0009 B(  0-C ,  2-H ) :   1.0004 B(  0-C ,  3-H ) :   1.0003

Dispersion correction           -0.000010416
FINAL SINGLE POINT ENERGY       -39.821224691067

DIPOLE MOMENT
-------------
                                X             Y             Z
Electronic contribution:      0.00006      -0.00000       0.69287
Nuclear contribution   :     -0.00005      -0.00000      -0.96782
                        -----------------------------------------
Total Dipole Moment    :      0.00000      -0.00000      -0.27495
                        -----------------------------------------
Magnitude (a.u.)       :      0.27495
Magnitude (Debye)      :      0.69886

Dispersion correction in the Hessian             ... done   (      0.1 sec)

VIBRATIONAL FREQUENCIES
-----------------------

Scaling factor for frequencies =  1.000000000  (already applied!)

   0:         0.00 cm**-1
   1:         0.00 cm**-1
   2:         0.00 cm**-1
   3:         0.00 cm**-1
   4:         0.00 cm**-1
   5:         0.00 cm**-1
   6:      1225.06 cm**-1
   7:      1407.59 cm**-1
   8:      1410.44 cm**-1
   9:      3065.01 cm**-1
  10:      3147.41 cm**-1
  11:      3147.53 cm**-1

IR SPECTRUM
-----------

 Mode   freq       eps      Int      T**2         TX        TY        TZ
       cm**-1   L/(mol*cm) km/mol    a.u.
----------------------------------------------------------------------------
  6:   1225.06   0.002560   12.94  0.000652  ( 0.000097 -0.000000  0.025536)
  7:   1407.59   0.000735    3.72  0.000163  ( 0.000000 -0.012766 -0.000000)
  8:   1410.44   0.000722    3.65  0.000160  (-0.012636 -0.000000 -0.000173)
  9:   3065.01   0.000017    0.09  0.000002  ( 0.000050  0.000000  0.001321)
 10:   3147.41   0.005527   27.93  0.000548  ( 0.000037  0.023408  0.000000)
 11:   3147.53   0.005396   27.27  0.000535  ( 0.023129 -0.000038  0.000001)

--------------------------
THERMOCHEMISTRY AT 298.15K
--------------------------

Temperature         ... 298.15 K
Pressure            ... 1.00 atm
Total Mass          ... 15.03 AMU

Throughout the following assumptions are being made:
  (1) The electronic state is orbitally nondegenerate
      but the spin degeneracy is treated
  (2) There are no thermally accessible electronically excited states
  (3) Hindered rotations indicated by low frequency modes are not
      treated as such but are treated as vibrations and this may
      cause some error
  (4) All equations used are the standard statistical mechanics
      equations for an ideal gas
  (5) All vibrations are strictly harmonic

freq.    1225.06  E(vib)   ...       0.01
freq.    1407.59  E(vib)   ...       0.00
freq.    1410.44  E(vib)   ...       0.00
freq.    3065.01  E(vib)   ...       0.00
freq.    3147.41  E(vib)   ...       0.00
freq.    3147.53  E(vib)   ...       0.00

------------
INNER ENERGY
------------

The inner energy is: U= E(el) + E(ZPE) + E(vib) + E(rot) + E(trans)
    E(el)   - is the total energy from the electronic structure calculation
              = E(kin-el) + E(nuc-el) + E(el-el) + E(nuc-nuc)
    E(ZPE)  - the the zero temperature vibrational energy from the frequency calculation
    E(vib)  - the the finite temperature correction to E(ZPE) due to population
              of excited vibrational states
    E(rot)  - is the rotational thermal energy
    E(trans)- is the translational thermal energy

Summary of contributions to the inner energy U:
Electronic energy                ...    -39.82122469 Eh
Zero point energy                ...      0.03053438 Eh      19.16 kcal/mol
Thermal vibrational correction   ...      0.00002950 Eh       0.02 kcal/mol
Thermal rotational correction    ...      0.00141627 Eh       0.89 kcal/mol
Thermal translational correction ...      0.00141627 Eh       0.89 kcal/mol
-----------------------------------------------------------------------
Total thermal energy                    -39.78782828 Eh

Summary of corrections to the electronic energy:
(perhaps to be used in another calculation)
Total thermal correction                  0.00286204 Eh       1.80 kcal/mol
Non-thermal (ZPE) correction              0.03053438 Eh      19.16 kcal/mol
-----------------------------------------------------------------------
Total correction                          0.03339642 Eh      20.96 kcal/mol

--------
ENTHALPY
--------

The enthalpy is H = U + kB*T
                kB is Boltzmann's constant
Total free energy                 ...    -39.78782828 Eh
Thermal Enthalpy correction       ...      0.00094421 Eh       0.59 kcal/mol
-----------------------------------------------------------------------
Total Enthalpy                    ...    -39.78688407 Eh

Note: Rotational entropy computed according to Herzberg
Infrared and Raman Spectra, Chapter V,1, Van Nostrand Reinhold, 1945
Point Group:  C3v, Symmetry Number:   3
Rotational constants in cm-1:     8.545364     8.544865     5.526411

Vibrational entropy computed according to the QRRHO of S. Grimme
Chem.Eur.J. 2012 18 9955

-------
ENTROPY
-------

The entropy contributions are T*S = T*(S(el)+S(vib)+S(rot)+S(trans))
     S(el)   - electronic entropy
     S(vib)  - vibrational entropy
     S(rot)  - rotational entropy
     S(trans)- translational entropy
The entropies will be listed as multiplied by the temperature to get
units of energy

Electronic entropy                ...      0.00065446 Eh      0.41 kcal/mol
Vibrational entropy               ...      0.00003417 Eh      0.02 kcal/mol
Rotational entropy                ...      0.00564086 Eh      3.54 kcal/mol
Translational entropy             ...      0.01618771 Eh     10.16 kcal/mol
-----------------------------------------------------------------------
Final entropy term                ...      0.02251719 Eh     14.13 kcal/mol

In case the symmetry of your molecule has not been determined correctly
or in case you have a reason to use a different symmetry number we print
out the resulting rotational entropy values for sn=1,12 :
 --------------------------------------------------------
|  sn= 1 | S(rot)=       0.00667815 Eh      4.19 kcal/mol|
|  sn= 2 | S(rot)=       0.00602369 Eh      3.78 kcal/mol|
|  sn= 3 | S(rot)=       0.00564086 Eh      3.54 kcal/mol|
|  sn= 4 | S(rot)=       0.00536923 Eh      3.37 kcal/mol|
|  sn= 5 | S(rot)=       0.00515854 Eh      3.24 kcal/mol|
|  sn= 6 | S(rot)=       0.00498640 Eh      3.13 kcal/mol|
|  sn= 7 | S(rot)=       0.00484085 Eh      3.04 kcal/mol|
|  sn= 8 | S(rot)=       0.00471478 Eh      2.96 kcal/mol|
|  sn= 9 | S(rot)=       0.00460357 Eh      2.89 kcal/mol|
|  sn=10 | S(rot)=       0.00450409 Eh      2.83 kcal/mol|
|  sn=11 | S(rot)=       0.00441410 Eh      2.77 kcal/mol|
|  sn=12 | S(rot)=       0.00433194 Eh      2.72 kcal/mol|
 --------------------------------------------------------

-------------------
GIBBS FREE ENERGY
-------------------

The Gibbs free energy is G = H - T*S

Total enthalpy                    ...    -39.78688407 Eh
Total entropy correction          ...     -0.02251719 Eh    -14.13 kcal/mol
-----------------------------------------------------------------------
Final Gibbs free energy         ...    -39.80940126 Eh

For completeness - the Gibbs free energy minus the electronic energy
G-E(el)                           ...      0.01182343 Eh      7.42 kcal/mol

                             ****ORCA TERMINATED NORMALLY****
TOTAL RUN TIME: 0 days 0 hours 0 minutes 55 seconds 320 msec
