                         Program Version 5.0.4 -  RELEASE  -
|  1> ! UKS TightSCF wB97x-D3 def2-TZVPD xyzfile opt freq
|  2>
|  3> # CH3 radical 112.5 degrees fixed
|  4>
|  5> %maxcore 1000
|  6> %pal
|  7> nprocs 18
|  8> end
|  9>
| 10> %geom Constraints
| 11>         { A * 0 * C }
| 12>     end
| 13> end
| 14> * xyz 0 2
| 15> C 0.00 0.00 0.00
| 16> H 1.0369062817 0.0000000000 -0.3020353671
| 17> H -0.5184531408 0.8979871813 -0.3020353671
| 18> H -0.5184531408 -0.8979871813 -0.3020353671
| 19> **                         ****END OF INPUT****
 Total Charge           Charge          ....    0
 Multiplicity           Mult            ....    2
 Number of Electrons    NEL             ....    9
Dispersion correction           -0.000013368
FINAL SINGLE POINT ENERGY       -39.832677838154
Dispersion correction            ... done
Dispersion correction           -0.000014023
FINAL SINGLE POINT ENERGY       -39.832763109407
Dispersion correction            ... done
                    ***********************HURRAY********************

CARTESIAN COORDINATES (ANGSTROEM)
---------------------------------
  C     -0.000004   -0.000000    0.001387
  H      1.043263   -0.000000   -0.302499
  H     -0.521629    0.903483   -0.302497
  H     -0.521629   -0.903483   -0.302497

 Multiplicity           Mult            ....    2
 Number of Electrons    NEL             ....    9
 Basis Dimension        Dim             ....   64

ORBITAL ENERGIES
----------------
                 SPIN UP ORBITALS
  NO   OCC          E(Eh)            E(eV)
   0   1.0000     -10.291189      -280.0375
   1   1.0000      -0.806158       -21.9367
   2   1.0000      -0.510941       -13.9034
   3   1.0000      -0.510914       -13.9027
   4   1.0000      -0.349933        -9.5222
   5   0.0000       0.076010         2.0683
   6   0.0000       0.161113         4.3841
   7   0.0000       0.161123         4.3844
   8   0.0000       0.198089         5.3903
   9   0.0000       0.198099         5.3905

                 SPIN DOWN ORBITALS
  NO   OCC          E(Eh)            E(eV)
   0   1.0000     -10.280547      -279.7479
   1   1.0000      -0.764727       -20.8093
   2   1.0000      -0.497258       -13.5311
   3   1.0000      -0.497189       -13.5292
   4   0.0000      -0.005579        -0.1518
   5   0.0000       0.085538         2.3276
   6   0.0000       0.165652         4.5076
   7   0.0000       0.165667         4.5080
   8   0.0000       0.200424         5.4538

MULLIKEN ATOMIC CHARGES AND SPIN POPULATIONS
--------------------------------------------
   0 C :   -0.710381    0.891940
   1 H :    0.236595    0.035988
   2 H :    0.236891    0.036036
   3 H :    0.236894    0.036036
Sum of atomic charges         :    0.0000000

LOEWDIN ATOMIC CHARGES AND SPIN POPULATIONS
-------------------------------------------
   0 C :    0.054085    0.835728
   1 H :   -0.018032    0.054774
   2 H :   -0.018027    0.054749
   3 H :   -0.018027    0.054749

  Mayer bond orders larger than 0.100000
B(  0-C ,  1-H ) :   0.9782 B(  0-C ,  2-H ) :   0.9778 B(  0-C ,  3-H ) :   0.9778

Dispersion correction           -0.000014037
FINAL SINGLE POINT ENERGY       -39.832763147934

DIPOLE MOMENT
-------------
                                X             Y             Z
Electronic contribution:      0.00019       0.00000       0.46371
Nuclear contribution   :      0.00001       0.00000      -0.68327
                        -----------------------------------------
Total Dipole Moment    :      0.00020       0.00000      -0.21956
                        -----------------------------------------
Magnitude (a.u.)       :      0.21956
Magnitude (Debye)      :      0.55807

Dispersion correction in the Hessian             ... done   (      0.1 sec)

VIBRATIONAL FREQUENCIES
-----------------------

Scaling factor for frequencies =  1.000000000  (already applied!)

   0:         0.00 cm**-1
   1:         0.00 cm**-1
   2:         0.00 cm**-1
   3:         0.00 cm**-1
   4:         0.00 cm**-1
   5:         0.00 cm**-1
   6:      1050.63 cm**-1
   7:      1420.30 cm**-1
   8:      1424.57 cm**-1
   9:      3091.55 cm**-1
  10:      3224.34 cm**-1
  11:      3224.60 cm**-1

IR SPECTRUM
-----------

 Mode   freq       eps      Int      T**2         TX        TY        TZ
       cm**-1   L/(mol*cm) km/mol    a.u.
----------------------------------------------------------------------------
  6:   1050.63   0.005713   28.87  0.001697  ( 0.000090 -0.000000 -0.041192)
  7:   1420.30   0.000596    3.01  0.000131  (-0.011439  0.000000 -0.000076)
  8:   1424.57   0.000593    3.00  0.000130  (-0.000000 -0.011399  0.000000)
  9:   3091.55   0.000013    0.06  0.000001  (-0.000027  0.000000  0.001137)
 10:   3224.34   0.003099   15.66  0.000300  (-0.017319  0.000004  0.000013)
 11:   3224.60   0.003125   15.79  0.000302  (-0.000004 -0.017389  0.000000)

--------------------------
THERMOCHEMISTRY AT 298.15K
--------------------------

Temperature         ... 298.15 K
Pressure            ... 1.00 atm
Total Mass          ... 15.03 AMU

Throughout the following assumptions are being made:
  (1) The electronic state is orbitally nondegenerate
      but the spin degeneracy is treated
  (2) There are no thermally accessible electronically excited states
  (3) Hindered rotations indicated by low frequency modes are not
      treated as such but are treated as vibrations and this may
      cause some error
  (4) All equations used are the standard statistical mechanics
      equations for an ideal gas
  (5) All vibrations are strictly harmonic

freq.    1050.63  E(vib)   ...       0.02
freq.    1420.30  E(vib)   ...       0.00
freq.    1424.57  E(vib)   ...       0.00
freq.    3091.55  E(vib)   ...       0.00
freq.    3224.34  E(vib)   ...       0.00
freq.    3224.60  E(vib)   ...       0.00

------------
INNER ENERGY
------------

The inner energy is: U= E(el) + E(ZPE) + E(vib) + E(rot) + E(trans)
    E(el)   - is the total energy from the electronic structure calculation
              = E(kin-el) + E(nuc-el) + E(el-el) + E(nuc-nuc)
    E(ZPE)  - the the zero temperature vibrational energy from the frequency calculation
    E(vib)  - the the finite temperature correction to E(ZPE) due to population
              of excited vibrational states
    E(rot)  - is the rotational thermal energy
    E(trans)- is the translational thermal energy

Summary of contributions to the inner energy U:
Electronic energy                ...    -39.83276315 Eh
Zero point energy                ...      0.03060943 Eh      19.21 kcal/mol
Thermal vibrational correction   ...      0.00004383 Eh       0.03 kcal/mol
Thermal rotational correction    ...      0.00141627 Eh       0.89 kcal/mol
Thermal translational correction ...      0.00141627 Eh       0.89 kcal/mol
-----------------------------------------------------------------------
Total thermal energy                    -39.79927734 Eh

Summary of corrections to the electronic energy:
(perhaps to be used in another calculation)
Total thermal correction                  0.00287638 Eh       1.80 kcal/mol
Non-thermal (ZPE) correction              0.03060943 Eh      19.21 kcal/mol
-----------------------------------------------------------------------
Total correction                          0.03348581 Eh      21.01 kcal/mol

--------
ENTHALPY
--------

The enthalpy is H = U + kB*T
                kB is Boltzmann's constant
Total free energy                 ...    -39.79927734 Eh
Thermal Enthalpy correction       ...      0.00094421 Eh       0.59 kcal/mol
-----------------------------------------------------------------------
Total Enthalpy                    ...    -39.79833313 Eh

Note: Rotational entropy computed according to Herzberg
Infrared and Raman Spectra, Chapter V,1, Van Nostrand Reinhold, 1945
Point Group:  C3v, Symmetry Number:   3
Rotational constants in cm-1:     9.020995     9.020860     5.121917

Vibrational entropy computed according to the QRRHO of S. Grimme
Chem.Eur.J. 2012 18 9955

-------
ENTROPY
-------

The entropy contributions are T*S = T*(S(el)+S(vib)+S(rot)+S(trans))
     S(el)   - electronic entropy
     S(vib)  - vibrational entropy
     S(rot)  - rotational entropy
     S(trans)- translational entropy
The entropies will be listed as multiplied by the temperature to get
units of energy

Electronic entropy                ...      0.00065446 Eh      0.41 kcal/mol
Vibrational entropy               ...      0.00005178 Eh      0.03 kcal/mol
Rotational entropy                ...      0.00562558 Eh      3.53 kcal/mol
Translational entropy             ...      0.01618771 Eh     10.16 kcal/mol
-----------------------------------------------------------------------
Final entropy term                ...      0.02251952 Eh     14.13 kcal/mol

In case the symmetry of your molecule has not been determined correctly
or in case you have a reason to use a different symmetry number we print
out the resulting rotational entropy values for sn=1,12 :
 --------------------------------------------------------
|  sn= 1 | S(rot)=       0.00666287 Eh      4.18 kcal/mol|
|  sn= 2 | S(rot)=       0.00600841 Eh      3.77 kcal/mol|
|  sn= 3 | S(rot)=       0.00562558 Eh      3.53 kcal/mol|
|  sn= 4 | S(rot)=       0.00535395 Eh      3.36 kcal/mol|
|  sn= 5 | S(rot)=       0.00514327 Eh      3.23 kcal/mol|
|  sn= 6 | S(rot)=       0.00497112 Eh      3.12 kcal/mol|
|  sn= 7 | S(rot)=       0.00482557 Eh      3.03 kcal/mol|
|  sn= 8 | S(rot)=       0.00469950 Eh      2.95 kcal/mol|
|  sn= 9 | S(rot)=       0.00458829 Eh      2.88 kcal/mol|
|  sn=10 | S(rot)=       0.00448881 Eh      2.82 kcal/mol|
|  sn=11 | S(rot)=       0.00439882 Eh      2.76 kcal/mol|
|  sn=12 | S(rot)=       0.00431666 Eh      2.71 kcal/mol|
 --------------------------------------------------------

-------------------
GIBBS FREE ENERGY
-------------------

The Gibbs free energy is G = H - T*S

Total enthalpy                    ...    -39.79833313 Eh
Total entropy correction          ...     -0.02251952 Eh    -14.13 kcal/mol
-----------------------------------------------------------------------
Final Gibbs free energy         ...    -39.82085265 Eh

For completeness - the Gibbs free energy minus the electronic energy
G-E(el)                           ...      0.01191050 Eh      7.47 kcal/mol

                             ****ORCA TERMINATED NORMALLY****
TOTAL RUN TIME: 0 days 0 hours 0 minutes 53 seconds 412 msec
