                         Program Version 5.0.4 -  RELEASE  -
|  1> ! UKS TightSCF wB97x-D3 def2-TZVPD xyzfile opt freq
|  2>
|  3> # CH3 radical 119.0 degrees fixed
|  4>
|  5> %maxcore 1000
|  6> %pal
|  7> nprocs 18
|  8> end
|  9>
| 10> %geom Constraints
| 11>         { A * 0 * C }
| 12>     end
| 13> end
| 14> * xyz 0 2
| 15> C 0.00 0.00 0.00
| 16> H 1.0745175479 0.0000000000 -0.1086832061
| 17> H -0.5372587739 0.9305594933 -0.1086832061
| 18> H -0.5372587739 -0.9305594933 -0.1086832061
| 19> **                         ****END OF INPUT****
 Total Charge           Charge          ....    0
 Multiplicity           Mult            ....    2
 Number of Electrons    NEL             ....    9
Dispersion correction           -0.000017706
FINAL SINGLE POINT ENERGY       -39.839026487862
Dispersion correction            ... done
                    ***********************HURRAY********************

CARTESIAN COORDINATES (ANGSTROEM)
---------------------------------
  C      0.000002    0.000000    0.000039
  H      1.075026    0.000000   -0.108696
  H     -0.537514    0.931004   -0.108696
  H     -0.537514   -0.931004   -0.108696

 Multiplicity           Mult            ....    2
 Number of Electrons    NEL             ....    9
 Basis Dimension        Dim             ....   64

ORBITAL ENERGIES
----------------
                 SPIN UP ORBITALS
  NO   OCC          E(Eh)            E(eV)
   0   1.0000     -10.286135      -279.9000
   1   1.0000      -0.802790       -21.8450
   2   1.0000      -0.520004       -14.1500
   3   1.0000      -0.520002       -14.1500
   4   1.0000      -0.329755        -8.9731
   5   0.0000       0.076355         2.0777
   6   0.0000       0.161197         4.3864
   7   0.0000       0.161199         4.3864
   8   0.0000       0.197440         5.3726
   9   0.0000       0.204389         5.5617

                 SPIN DOWN ORBITALS
  NO   OCC          E(Eh)            E(eV)
   0   1.0000     -10.276017      -279.6246
   1   1.0000      -0.757746       -20.6193
   2   1.0000      -0.507393       -13.8069
   3   1.0000      -0.507363       -13.8060
   4   0.0000       0.008433         0.2295
   5   0.0000       0.086518         2.3543
   6   0.0000       0.164862         4.4861
   7   0.0000       0.164871         4.4864
   8   0.0000       0.204609         5.5677

MULLIKEN ATOMIC CHARGES AND SPIN POPULATIONS
--------------------------------------------
   0 C :   -0.750348    0.919840
   1 H :    0.250156    0.026649
   2 H :    0.250096    0.026756
   3 H :    0.250095    0.026755
Sum of atomic charges         :   -0.0000000

LOEWDIN ATOMIC CHARGES AND SPIN POPULATIONS
-------------------------------------------
   0 C :    0.059876    0.835490
   1 H :   -0.019974    0.054830
   2 H :   -0.019951    0.054840
   3 H :   -0.019951    0.054840

  Mayer bond orders larger than 0.100000
B(  0-C ,  1-H ) :   0.9475 B(  0-C ,  2-H ) :   0.9474 B(  0-C ,  3-H ) :   0.9474

Dispersion correction           -0.000017774
FINAL SINGLE POINT ENERGY       -39.839027025570

DIPOLE MOMENT
-------------
                                X             Y             Z
Electronic contribution:     -0.00008       0.00000       0.15457
Nuclear contribution   :     -0.00001      -0.00000      -0.24448
                        -----------------------------------------
Total Dipole Moment    :     -0.00008      -0.00000      -0.08991
                        -----------------------------------------
Magnitude (a.u.)       :      0.08991
Magnitude (Debye)      :      0.22853

Dispersion correction in the Hessian             ... done   (      0.1 sec)

VIBRATIONAL FREQUENCIES
-----------------------

Scaling factor for frequencies =  1.000000000  (already applied!)

   0:         0.00 cm**-1
   1:         0.00 cm**-1
   2:         0.00 cm**-1
   3:         0.00 cm**-1
   4:         0.00 cm**-1
   5:         0.00 cm**-1
   6:       639.04 cm**-1
   7:      1406.80 cm**-1
   8:      1408.65 cm**-1
   9:      3126.79 cm**-1
  10:      3301.01 cm**-1
  11:      3301.84 cm**-1

IR SPECTRUM
-----------

 Mode   freq       eps      Int      T**2         TX        TY        TZ
       cm**-1   L/(mol*cm) km/mol    a.u.
----------------------------------------------------------------------------
  6:    639.04   0.013641   68.93  0.006661  (-0.000100  0.000000  0.081616)
  7:   1406.80   0.000546    2.76  0.000121  ( 0.010995  0.000000  0.000431)
  8:   1408.65   0.000558    2.82  0.000124  ( 0.000000 -0.011115  0.000000)
  9:   3126.79   0.000001    0.01  0.000000  ( 0.000098 -0.000000 -0.000354)
 10:   3301.01   0.001129    5.70  0.000107  (-0.010330 -0.000003  0.000003)
 11:   3301.84   0.001095    5.53  0.000103  ( 0.000003 -0.010172  0.000000)

--------------------------
THERMOCHEMISTRY AT 298.15K
--------------------------

Temperature         ... 298.15 K
Pressure            ... 1.00 atm
Total Mass          ... 15.03 AMU

Throughout the following assumptions are being made:
  (1) The electronic state is orbitally nondegenerate
      but the spin degeneracy is treated
  (2) There are no thermally accessible electronically excited states
  (3) Hindered rotations indicated by low frequency modes are not
      treated as such but are treated as vibrations and this may
      cause some error
  (4) All equations used are the standard statistical mechanics
      equations for an ideal gas
  (5) All vibrations are strictly harmonic

freq.     639.04  E(vib)   ...       0.09
freq.    1406.80  E(vib)   ...       0.00
freq.    1408.65  E(vib)   ...       0.00
freq.    3126.79  E(vib)   ...       0.00
freq.    3301.01  E(vib)   ...       0.00
freq.    3301.84  E(vib)   ...       0.00

------------
INNER ENERGY
------------

The inner energy is: U= E(el) + E(ZPE) + E(vib) + E(rot) + E(trans)
    E(el)   - is the total energy from the electronic structure calculation
              = E(kin-el) + E(nuc-el) + E(el-el) + E(nuc-nuc)
    E(ZPE)  - the the zero temperature vibrational energy from the frequency calculation
    E(vib)  - the the finite temperature correction to E(ZPE) due to population
              of excited vibrational states
    E(rot)  - is the rotational thermal energy
    E(trans)- is the translational thermal energy

Summary of contributions to the inner energy U:
Electronic energy                ...    -39.83902703 Eh
Zero point energy                ...      0.03003568 Eh      18.85 kcal/mol
Thermal vibrational correction   ...      0.00015413 Eh       0.10 kcal/mol
Thermal rotational correction    ...      0.00141627 Eh       0.89 kcal/mol
Thermal translational correction ...      0.00141627 Eh       0.89 kcal/mol
-----------------------------------------------------------------------
Total thermal energy                    -39.80600468 Eh

Summary of corrections to the electronic energy:
(perhaps to be used in another calculation)
Total thermal correction                  0.00298667 Eh       1.87 kcal/mol
Non-thermal (ZPE) correction              0.03003568 Eh      18.85 kcal/mol
-----------------------------------------------------------------------
Total correction                          0.03302235 Eh      20.72 kcal/mol

--------
ENTHALPY
--------

The enthalpy is H = U + kB*T
                kB is Boltzmann's constant
Total free energy                 ...    -39.80600468 Eh
Thermal Enthalpy correction       ...      0.00094421 Eh       0.59 kcal/mol
-----------------------------------------------------------------------
Total Enthalpy                    ...    -39.80506047 Eh

Note: Rotational entropy computed according to Herzberg
Infrared and Raman Spectra, Chapter V,1, Van Nostrand Reinhold, 1945
Point Group:  C3v, Symmetry Number:   3
Rotational constants in cm-1:     9.492167     9.492089     4.823642

Vibrational entropy computed according to the QRRHO of S. Grimme
Chem.Eur.J. 2012 18 9955

-------
ENTROPY
-------

The entropy contributions are T*S = T*(S(el)+S(vib)+S(rot)+S(trans))
     S(el)   - electronic entropy
     S(vib)  - vibrational entropy
     S(rot)  - rotational entropy
     S(trans)- translational entropy
The entropies will be listed as multiplied by the temperature to get
units of energy

Electronic entropy                ...      0.00065446 Eh      0.41 kcal/mol
Vibrational entropy               ...      0.00020068 Eh      0.13 kcal/mol
Rotational entropy                ...      0.00560583 Eh      3.52 kcal/mol
Translational entropy             ...      0.01618771 Eh     10.16 kcal/mol
-----------------------------------------------------------------------
Final entropy term                ...      0.02264867 Eh     14.21 kcal/mol

In case the symmetry of your molecule has not been determined correctly
or in case you have a reason to use a different symmetry number we print
out the resulting rotational entropy values for sn=1,12 :
 --------------------------------------------------------
|  sn= 1 | S(rot)=       0.00664312 Eh      4.17 kcal/mol|
|  sn= 2 | S(rot)=       0.00598866 Eh      3.76 kcal/mol|
|  sn= 3 | S(rot)=       0.00560583 Eh      3.52 kcal/mol|
|  sn= 4 | S(rot)=       0.00533421 Eh      3.35 kcal/mol|
|  sn= 5 | S(rot)=       0.00512352 Eh      3.22 kcal/mol|
|  sn= 6 | S(rot)=       0.00495137 Eh      3.11 kcal/mol|
|  sn= 7 | S(rot)=       0.00480583 Eh      3.02 kcal/mol|
|  sn= 8 | S(rot)=       0.00467975 Eh      2.94 kcal/mol|
|  sn= 9 | S(rot)=       0.00456854 Eh      2.87 kcal/mol|
|  sn=10 | S(rot)=       0.00446906 Eh      2.80 kcal/mol|
|  sn=11 | S(rot)=       0.00437907 Eh      2.75 kcal/mol|
|  sn=12 | S(rot)=       0.00429692 Eh      2.70 kcal/mol|
 --------------------------------------------------------

-------------------
GIBBS FREE ENERGY
-------------------

The Gibbs free energy is G = H - T*S

Total enthalpy                    ...    -39.80506047 Eh
Total entropy correction          ...     -0.02264867 Eh    -14.21 kcal/mol
-----------------------------------------------------------------------
Final Gibbs free energy         ...    -39.82770914 Eh

For completeness - the Gibbs free energy minus the electronic energy
G-E(el)                           ...      0.01131789 Eh      7.10 kcal/mol

                             ****ORCA TERMINATED NORMALLY****
TOTAL RUN TIME: 0 days 0 hours 0 minutes 38 seconds 707 msec
