                         Program Version 5.0.4 -  RELEASE  -
|  1> ! UKS TightSCF wB97x-D3 def2-TZVPD xyzfile opt freq
|  2>
|  3> # CH3 radical 118.5 degrees fixed
|  4>
|  5> %maxcore 1000
|  6> %pal
|  7> nprocs 18
|  8> end
|  9>
| 10> %geom Constraints
| 11>         { A * 0 * C }
| 12>     end
| 13> end
| 14> * xyz 0 2
| 15> C 0.00 0.00 0.00
| 16> H 1.0717456097 0.0000000000 -0.1332717075
| 17> H -0.5358728049 0.9281589244 -0.1332717075
| 18> H -0.5358728049 -0.9281589244 -0.1332717075
| 19> **                         ****END OF INPUT****
 Total Charge           Charge          ....    0
 Multiplicity           Mult            ....    2
 Number of Electrons    NEL             ....    9
Dispersion correction           -0.000017349
FINAL SINGLE POINT ENERGY       -39.838694014143
Dispersion correction            ... done
Dispersion correction           -0.000017478
FINAL SINGLE POINT ENERGY       -39.838696051635
Dispersion correction            ... done
                    ***********************HURRAY********************

CARTESIAN COORDINATES (ANGSTROEM)
---------------------------------
  C     -0.000000    0.000000    0.000093
  H      1.072745    0.000000   -0.133303
  H     -0.536372    0.929024   -0.133303
  H     -0.536372   -0.929024   -0.133303

 Multiplicity           Mult            ....    2
 Number of Electrons    NEL             ....    9
 Basis Dimension        Dim             ....   64

ORBITAL ENERGIES
----------------
                 SPIN UP ORBITALS
  NO   OCC          E(Eh)            E(eV)
   0   1.0000     -10.286544      -279.9111
   1   1.0000      -0.803025       -21.8514
   2   1.0000      -0.519334       -14.1318
   3   1.0000      -0.519333       -14.1318
   4   1.0000      -0.331335        -9.0161
   5   0.0000       0.076334         2.0771
   6   0.0000       0.161206         4.3867
   7   0.0000       0.161208         4.3867
   8   0.0000       0.198082         5.3901
   9   0.0000       0.203723         5.5436

                 SPIN DOWN ORBITALS
  NO   OCC          E(Eh)            E(eV)
   0   1.0000     -10.276382      -279.6346
   1   1.0000      -0.758292       -20.6342
   2   1.0000      -0.506639       -13.7863
   3   1.0000      -0.506597       -13.7852
   4   0.0000       0.007400         0.2014
   5   0.0000       0.086453         2.3525
   6   0.0000       0.164967         4.4890
   7   0.0000       0.164977         4.4893
   8   0.0000       0.204078         5.5533

MULLIKEN ATOMIC CHARGES AND SPIN POPULATIONS
--------------------------------------------
   0 C :   -0.744206    0.916949
   1 H :    0.248029    0.027593
   2 H :    0.248089    0.027729
   3 H :    0.248088    0.027728
Sum of atomic charges         :   -0.0000000

LOEWDIN ATOMIC CHARGES AND SPIN POPULATIONS
-------------------------------------------
   0 C :    0.059494    0.835478
   1 H :   -0.019844    0.054837
   2 H :   -0.019825    0.054843
   3 H :   -0.019825    0.054843

  Mayer bond orders larger than 0.100000
B(  0-C ,  1-H ) :   0.9507 B(  0-C ,  2-H ) :   0.9504 B(  0-C ,  3-H ) :   0.9504

Dispersion correction           -0.000017479
FINAL SINGLE POINT ENERGY       -39.838695961336

DIPOLE MOMENT
-------------
                                X             Y             Z
Electronic contribution:     -0.00009      -0.00000       0.19086
Nuclear contribution   :      0.00000      -0.00000      -0.29993
                        -----------------------------------------
Total Dipole Moment    :     -0.00009      -0.00000      -0.10907
                        -----------------------------------------
Magnitude (a.u.)       :      0.10907
Magnitude (Debye)      :      0.27724

Dispersion correction in the Hessian             ... done   (      0.1 sec)

VIBRATIONAL FREQUENCIES
-----------------------

Scaling factor for frequencies =  1.000000000  (already applied!)

   0:         0.00 cm**-1
   1:         0.00 cm**-1
   2:         0.00 cm**-1
   3:         0.00 cm**-1
   4:         0.00 cm**-1
   5:         0.00 cm**-1
   6:       688.24 cm**-1
   7:      1408.47 cm**-1
   8:      1411.01 cm**-1
   9:      3123.61 cm**-1
  10:      3294.79 cm**-1
  11:      3295.75 cm**-1

IR SPECTRUM
-----------

 Mode   freq       eps      Int      T**2         TX        TY        TZ
       cm**-1   L/(mol*cm) km/mol    a.u.
----------------------------------------------------------------------------
  6:    688.24   0.012648   63.92  0.005735  ( 0.000137 -0.000000 -0.075729)
  7:   1408.47   0.000546    2.76  0.000121  ( 0.010998 -0.000000  0.000161)
  8:   1411.01   0.000559    2.83  0.000124  ( 0.000000  0.011122 -0.000000)
  9:   3123.61   0.000002    0.01  0.000000  (-0.000107  0.000000  0.000453)
 10:   3294.79   0.001267    6.40  0.000120  (-0.010954 -0.000001 -0.000010)
 11:   3295.75   0.001235    6.24  0.000117  (-0.000001  0.010812  0.000000)

--------------------------
THERMOCHEMISTRY AT 298.15K
--------------------------

Temperature         ... 298.15 K
Pressure            ... 1.00 atm
Total Mass          ... 15.03 AMU

Throughout the following assumptions are being made:
  (1) The electronic state is orbitally nondegenerate
      but the spin degeneracy is treated
  (2) There are no thermally accessible electronically excited states
  (3) Hindered rotations indicated by low frequency modes are not
      treated as such but are treated as vibrations and this may
      cause some error
  (4) All equations used are the standard statistical mechanics
      equations for an ideal gas
  (5) All vibrations are strictly harmonic

freq.     688.24  E(vib)   ...       0.07
freq.    1408.47  E(vib)   ...       0.00
freq.    1411.01  E(vib)   ...       0.00
freq.    3123.61  E(vib)   ...       0.00
freq.    3294.79  E(vib)   ...       0.00
freq.    3295.75  E(vib)   ...       0.00

------------
INNER ENERGY
------------

The inner energy is: U= E(el) + E(ZPE) + E(vib) + E(rot) + E(trans)
    E(el)   - is the total energy from the electronic structure calculation
              = E(kin-el) + E(nuc-el) + E(el-el) + E(nuc-nuc)
    E(ZPE)  - the the zero temperature vibrational energy from the frequency calculation
    E(vib)  - the the finite temperature correction to E(ZPE) due to population
              of excited vibrational states
    E(rot)  - is the rotational thermal energy
    E(trans)- is the translational thermal energy

Summary of contributions to the inner energy U:
Electronic energy                ...    -39.83869596 Eh
Zero point energy                ...      0.03012164 Eh      18.90 kcal/mol
Thermal vibrational correction   ...      0.00013177 Eh       0.08 kcal/mol
Thermal rotational correction    ...      0.00141627 Eh       0.89 kcal/mol
Thermal translational correction ...      0.00141627 Eh       0.89 kcal/mol
-----------------------------------------------------------------------
Total thermal energy                    -39.80561000 Eh

Summary of corrections to the electronic energy:
(perhaps to be used in another calculation)
Total thermal correction                  0.00296432 Eh       1.86 kcal/mol
Non-thermal (ZPE) correction              0.03012164 Eh      18.90 kcal/mol
-----------------------------------------------------------------------
Total correction                          0.03308596 Eh      20.76 kcal/mol

--------
ENTHALPY
--------

The enthalpy is H = U + kB*T
                kB is Boltzmann's constant
Total free energy                 ...    -39.80561000 Eh
Thermal Enthalpy correction       ...      0.00094421 Eh       0.59 kcal/mol
-----------------------------------------------------------------------
Total Enthalpy                    ...    -39.80466580 Eh

Note: Rotational entropy computed according to Herzberg
Infrared and Raman Spectra, Chapter V,1, Van Nostrand Reinhold, 1945
Point Group:  C3v, Symmetry Number:   3
Rotational constants in cm-1:     9.454830     9.454816     4.844206

Vibrational entropy computed according to the QRRHO of S. Grimme
Chem.Eur.J. 2012 18 9955

-------
ENTROPY
-------

The entropy contributions are T*S = T*(S(el)+S(vib)+S(rot)+S(trans))
     S(el)   - electronic entropy
     S(vib)  - vibrational entropy
     S(rot)  - rotational entropy
     S(trans)- translational entropy
The entropies will be listed as multiplied by the temperature to get
units of energy

Electronic entropy                ...      0.00065446 Eh      0.41 kcal/mol
Vibrational entropy               ...      0.00016873 Eh      0.11 kcal/mol
Rotational entropy                ...      0.00560754 Eh      3.52 kcal/mol
Translational entropy             ...      0.01618771 Eh     10.16 kcal/mol
-----------------------------------------------------------------------
Final entropy term                ...      0.02261843 Eh     14.19 kcal/mol

In case the symmetry of your molecule has not been determined correctly
or in case you have a reason to use a different symmetry number we print
out the resulting rotational entropy values for sn=1,12 :
 --------------------------------------------------------
|  sn= 1 | S(rot)=       0.00664483 Eh      4.17 kcal/mol|
|  sn= 2 | S(rot)=       0.00599037 Eh      3.76 kcal/mol|
|  sn= 3 | S(rot)=       0.00560754 Eh      3.52 kcal/mol|
|  sn= 4 | S(rot)=       0.00533591 Eh      3.35 kcal/mol|
|  sn= 5 | S(rot)=       0.00512523 Eh      3.22 kcal/mol|
|  sn= 6 | S(rot)=       0.00495308 Eh      3.11 kcal/mol|
|  sn= 7 | S(rot)=       0.00480754 Eh      3.02 kcal/mol|
|  sn= 8 | S(rot)=       0.00468146 Eh      2.94 kcal/mol|
|  sn= 9 | S(rot)=       0.00457025 Eh      2.87 kcal/mol|
|  sn=10 | S(rot)=       0.00447077 Eh      2.81 kcal/mol|
|  sn=11 | S(rot)=       0.00438078 Eh      2.75 kcal/mol|
|  sn=12 | S(rot)=       0.00429863 Eh      2.70 kcal/mol|
 --------------------------------------------------------

-------------------
GIBBS FREE ENERGY
-------------------

The Gibbs free energy is G = H - T*S

Total enthalpy                    ...    -39.80466580 Eh
Total entropy correction          ...     -0.02261843 Eh    -14.19 kcal/mol
-----------------------------------------------------------------------
Final Gibbs free energy         ...    -39.82728423 Eh

For completeness - the Gibbs free energy minus the electronic energy
G-E(el)                           ...      0.01141173 Eh      7.16 kcal/mol

                             ****ORCA TERMINATED NORMALLY****
TOTAL RUN TIME: 0 days 0 hours 0 minutes 52 seconds 461 msec
