                         Program Version 5.0.4 -  RELEASE  -
|  1> ! UKS TightSCF wB97x-D3 def2-TZVPD xyzfile opt freq
|  2>
|  3> # CH3 radical 110.0 degrees fixed
|  4>
|  5> %maxcore 1000
|  6> %pal
|  7> nprocs 18
|  8> end
|  9>
| 10> %geom Constraints
| 11>         { A * 0 * C }
| 12>     end
| 13> end
| 14> * xyz 0 2
| 15> C 0.00 0.00 0.00
| 16> H 1.0215453311 0.0000000000 -0.3504927054
| 17> H -0.5107726655 0.8846842078 -0.3504927054
| 18> H -0.5107726655 -0.8846842078 -0.3504927054
| 19> **                         ****END OF INPUT****
 Total Charge           Charge          ....    0
 Multiplicity           Mult            ....    2
 Number of Electrons    NEL             ....    9
Dispersion correction           -0.000011885
FINAL SINGLE POINT ENERGY       -39.829062706711
Dispersion correction            ... done
Dispersion correction           -0.000012662
FINAL SINGLE POINT ENERGY       -39.829213068781
Dispersion correction            ... done
                    ***********************HURRAY********************

CARTESIAN COORDINATES (ANGSTROEM)
---------------------------------
  C      0.000003   -0.000000    0.002147
  H      1.029882   -0.000000   -0.351207
  H     -0.514943    0.891912   -0.351209
  H     -0.514943   -0.891912   -0.351209

 Multiplicity           Mult            ....    2
 Number of Electrons    NEL             ....    9
 Basis Dimension        Dim             ....   64

ORBITAL ENERGIES
----------------
                 SPIN UP ORBITALS
  NO   OCC          E(Eh)            E(eV)
   0   1.0000     -10.293078      -280.0889
   1   1.0000      -0.807655       -21.9774
   2   1.0000      -0.507241       -13.8027
   3   1.0000      -0.507215       -13.8020
   4   1.0000      -0.357525        -9.7287
   5   0.0000       0.075825         2.0633
   6   0.0000       0.161021         4.3816
   7   0.0000       0.161031         4.3819
   8   0.0000       0.196657         5.3513
   9   0.0000       0.196664         5.3515

                 SPIN DOWN ORBITALS
  NO   OCC          E(Eh)            E(eV)
   0   1.0000     -10.282237      -279.7939
   1   1.0000      -0.767431       -20.8829
   2   1.0000      -0.493186       -13.4203
   3   1.0000      -0.493114       -13.4183
   4   0.0000      -0.011217        -0.3052
   5   0.0000       0.085079         2.3151
   6   0.0000       0.165769         4.5108
   7   0.0000       0.165780         4.5111
   8   0.0000       0.199877         5.4389

MULLIKEN ATOMIC CHARGES AND SPIN POPULATIONS
--------------------------------------------
   0 C :   -0.700451    0.887467
   1 H :    0.233241    0.037471
   2 H :    0.233604    0.037531
   3 H :    0.233606    0.037531
Sum of atomic charges         :   -0.0000000

LOEWDIN ATOMIC CHARGES AND SPIN POPULATIONS
-------------------------------------------
   0 C :    0.051746    0.836220
   1 H :   -0.017270    0.054606
   2 H :   -0.017238    0.054587
   3 H :   -0.017238    0.054587

  Mayer bond orders larger than 0.100000
B(  0-C ,  1-H ) :   0.9871 B(  0-C ,  2-H ) :   0.9866 B(  0-C ,  3-H ) :   0.9866

Dispersion correction           -0.000012684
FINAL SINGLE POINT ENERGY       -39.829213181511

DIPOLE MOMENT
-------------
                                X             Y             Z
Electronic contribution:      0.00017      -0.00000       0.55081
Nuclear contribution   :     -0.00001       0.00000      -0.79450
                        -----------------------------------------
Total Dipole Moment    :      0.00016       0.00000      -0.24369
                        -----------------------------------------
Magnitude (a.u.)       :      0.24369
Magnitude (Debye)      :      0.61941

Dispersion correction in the Hessian             ... done   (      0.1 sec)

VIBRATIONAL FREQUENCIES
-----------------------

Scaling factor for frequencies =  1.000000000  (already applied!)

   0:         0.00 cm**-1
   1:         0.00 cm**-1
   2:         0.00 cm**-1
   3:         0.00 cm**-1
   4:         0.00 cm**-1
   5:         0.00 cm**-1
   6:      1125.68 cm**-1
   7:      1418.95 cm**-1
   8:      1419.11 cm**-1
   9:      3081.09 cm**-1
  10:      3196.50 cm**-1
  11:      3196.54 cm**-1

IR SPECTRUM
-----------

 Mode   freq       eps      Int      T**2         TX        TY        TZ
       cm**-1   L/(mol*cm) km/mol    a.u.
----------------------------------------------------------------------------
  6:   1125.68   0.004201   21.23  0.001165  (-0.000078  0.000000  0.034126)
  7:   1418.95   0.000622    3.14  0.000137  ( 0.011689 -0.000001  0.000423)
  8:   1419.11   0.000629    3.18  0.000138  ( 0.000001  0.011765 -0.000000)
  9:   3081.09   0.000015    0.08  0.000002  ( 0.000029 -0.000000  0.001252)
 10:   3196.50   0.003977   20.10  0.000388  ( 0.000120 -0.019705 -0.000000)
 11:   3196.54   0.003914   19.78  0.000382  (-0.019548 -0.000121  0.000027)

--------------------------
THERMOCHEMISTRY AT 298.15K
--------------------------

Temperature         ... 298.15 K
Pressure            ... 1.00 atm
Total Mass          ... 15.03 AMU

Throughout the following assumptions are being made:
  (1) The electronic state is orbitally nondegenerate
      but the spin degeneracy is treated
  (2) There are no thermally accessible electronically excited states
  (3) Hindered rotations indicated by low frequency modes are not
      treated as such but are treated as vibrations and this may
      cause some error
  (4) All equations used are the standard statistical mechanics
      equations for an ideal gas
  (5) All vibrations are strictly harmonic

freq.    1125.68  E(vib)   ...       0.01
freq.    1418.95  E(vib)   ...       0.00
freq.    1419.11  E(vib)   ...       0.00
freq.    3081.09  E(vib)   ...       0.00
freq.    3196.50  E(vib)   ...       0.00
freq.    3196.54  E(vib)   ...       0.00

------------
INNER ENERGY
------------

The inner energy is: U= E(el) + E(ZPE) + E(vib) + E(rot) + E(trans)
    E(el)   - is the total energy from the electronic structure calculation
              = E(kin-el) + E(nuc-el) + E(el-el) + E(nuc-nuc)
    E(ZPE)  - the the zero temperature vibrational energy from the frequency calculation
    E(vib)  - the the finite temperature correction to E(ZPE) due to population
              of excited vibrational states
    E(rot)  - is the rotational thermal energy
    E(trans)- is the translational thermal energy

Summary of contributions to the inner energy U:
Electronic energy                ...    -39.82921318 Eh
Zero point energy                ...      0.03061371 Eh      19.21 kcal/mol
Thermal vibrational correction   ...      0.00003629 Eh       0.02 kcal/mol
Thermal rotational correction    ...      0.00141627 Eh       0.89 kcal/mol
Thermal translational correction ...      0.00141627 Eh       0.89 kcal/mol
-----------------------------------------------------------------------
Total thermal energy                    -39.79573064 Eh

Summary of corrections to the electronic energy:
(perhaps to be used in another calculation)
Total thermal correction                  0.00286883 Eh       1.80 kcal/mol
Non-thermal (ZPE) correction              0.03061371 Eh      19.21 kcal/mol
-----------------------------------------------------------------------
Total correction                          0.03348254 Eh      21.01 kcal/mol

--------
ENTHALPY
--------

The enthalpy is H = U + kB*T
                kB is Boltzmann's constant
Total free energy                 ...    -39.79573064 Eh
Thermal Enthalpy correction       ...      0.00094421 Eh       0.59 kcal/mol
-----------------------------------------------------------------------
Total Enthalpy                    ...    -39.79478643 Eh

Note: Rotational entropy computed according to Herzberg
Infrared and Raman Spectra, Chapter V,1, Van Nostrand Reinhold, 1945
Point Group:  C3v, Symmetry Number:   3
Rotational constants in cm-1:     8.847525     8.847419     5.255764

Vibrational entropy computed according to the QRRHO of S. Grimme
Chem.Eur.J. 2012 18 9955

-------
ENTROPY
-------

The entropy contributions are T*S = T*(S(el)+S(vib)+S(rot)+S(trans))
     S(el)   - electronic entropy
     S(vib)  - vibrational entropy
     S(rot)  - rotational entropy
     S(trans)- translational entropy
The entropies will be listed as multiplied by the temperature to get
units of energy

Electronic entropy                ...      0.00065446 Eh      0.41 kcal/mol
Vibrational entropy               ...      0.00004245 Eh      0.03 kcal/mol
Rotational entropy                ...      0.00563173 Eh      3.53 kcal/mol
Translational entropy             ...      0.01618771 Eh     10.16 kcal/mol
-----------------------------------------------------------------------
Final entropy term                ...      0.02251635 Eh     14.13 kcal/mol

In case the symmetry of your molecule has not been determined correctly
or in case you have a reason to use a different symmetry number we print
out the resulting rotational entropy values for sn=1,12 :
 --------------------------------------------------------
|  sn= 1 | S(rot)=       0.00666902 Eh      4.18 kcal/mol|
|  sn= 2 | S(rot)=       0.00601456 Eh      3.77 kcal/mol|
|  sn= 3 | S(rot)=       0.00563173 Eh      3.53 kcal/mol|
|  sn= 4 | S(rot)=       0.00536011 Eh      3.36 kcal/mol|
|  sn= 5 | S(rot)=       0.00514942 Eh      3.23 kcal/mol|
|  sn= 6 | S(rot)=       0.00497727 Eh      3.12 kcal/mol|
|  sn= 7 | S(rot)=       0.00483173 Eh      3.03 kcal/mol|
|  sn= 8 | S(rot)=       0.00470565 Eh      2.95 kcal/mol|
|  sn= 9 | S(rot)=       0.00459444 Eh      2.88 kcal/mol|
|  sn=10 | S(rot)=       0.00449496 Eh      2.82 kcal/mol|
|  sn=11 | S(rot)=       0.00440497 Eh      2.76 kcal/mol|
|  sn=12 | S(rot)=       0.00432282 Eh      2.71 kcal/mol|
 --------------------------------------------------------

-------------------
GIBBS FREE ENERGY
-------------------

The Gibbs free energy is G = H - T*S

Total enthalpy                    ...    -39.79478643 Eh
Total entropy correction          ...     -0.02251635 Eh    -14.13 kcal/mol
-----------------------------------------------------------------------
Final Gibbs free energy         ...    -39.81730278 Eh

For completeness - the Gibbs free energy minus the electronic energy
G-E(el)                           ...      0.01191040 Eh      7.47 kcal/mol

                             ****ORCA TERMINATED NORMALLY****
TOTAL RUN TIME: 0 days 0 hours 0 minutes 53 seconds 724 msec
