                         Program Version 5.0.4 -  RELEASE  -
|  1> ! UKS TightSCF wB97x-D3 def2-TZVPD xyzfile opt freq
|  2>
|  3> # CH3 radical 96.5 degrees fixed
|  4>
|  5> %maxcore 1000
|  6> %pal
|  7> nprocs 18
|  8> end
|  9>
| 10> %geom Constraints
| 11>         { A * 0 * C }
| 12>     end
| 13> end
| 14> * xyz 0 2
| 15> C 0.00 0.00 0.00
| 16> H 0.9303906809 0.0000000000 -0.5484279178
| 17> H -0.4651953404 0.8057419651 -0.5484279178
| 18> H -0.4651953404 -0.8057419651 -0.5484279178
| 19> **                         ****END OF INPUT****
 Total Charge           Charge          ....    0
 Multiplicity           Mult            ....    2
 Number of Electrons    NEL             ....    9
Dispersion correction           -0.000005713
FINAL SINGLE POINT ENERGY       -39.798282638341
Dispersion correction            ... done
Dispersion correction           -0.000006593
FINAL SINGLE POINT ENERGY       -39.799074335136
Dispersion correction            ... done
Dispersion correction           -0.000006648
FINAL SINGLE POINT ENERGY       -39.799076946047
Dispersion correction            ... done
                    ***********************HURRAY********************

CARTESIAN COORDINATES (ANGSTROEM)
---------------------------------
  C      0.000009    0.000000    0.007872
  H      0.948185    0.000000   -0.551048
  H     -0.474097    0.821170   -0.551054
  H     -0.474097   -0.821170   -0.551054

 Multiplicity           Mult            ....    2
 Number of Electrons    NEL             ....    9
 Basis Dimension        Dim             ....   64

ORBITAL ENERGIES
----------------
                 SPIN UP ORBITALS
  NO   OCC          E(Eh)            E(eV)
   0   1.0000     -10.303613      -280.3756
   1   1.0000      -0.818348       -22.2684
   2   1.0000      -0.485513       -13.2115
   3   1.0000      -0.485492       -13.2109
   4   1.0000      -0.396960       -10.8018
   5   0.0000       0.073804         2.0083
   6   0.0000       0.159970         4.3530
   7   0.0000       0.159975         4.3532
   8   0.0000       0.170081         4.6281
   9   0.0000       0.193124         5.2552

                 SPIN DOWN ORBITALS
  NO   OCC          E(Eh)            E(eV)
   0   1.0000     -10.291687      -280.0510
   1   1.0000      -0.783610       -21.3231
   2   1.0000      -0.469639       -12.7795
   3   1.0000      -0.469631       -12.7793
   4   0.0000      -0.042660        -1.1608
   5   0.0000       0.081716         2.2236
   6   0.0000       0.165662         4.5079
   7   0.0000       0.165662         4.5079
   8   0.0000       0.200038         5.4433

MULLIKEN ATOMIC CHARGES AND SPIN POPULATIONS
--------------------------------------------
   0 C :   -0.657952    0.901360
   1 H :    0.219035    0.032922
   2 H :    0.219459    0.032860
   3 H :    0.219459    0.032859
Sum of atomic charges         :    0.0000000

LOEWDIN ATOMIC CHARGES AND SPIN POPULATIONS
-------------------------------------------
   0 C :    0.039587    0.841926
   1 H :   -0.013229    0.052697
   2 H :   -0.013179    0.052689
   3 H :   -0.013179    0.052689

  Mayer bond orders larger than 0.100000
B(  0-C ,  1-H ) :   1.0228 B(  0-C ,  2-H ) :   1.0223 B(  0-C ,  3-H ) :   1.0223

Dispersion correction           -0.000006651
FINAL SINGLE POINT ENERGY       -39.799076957609

DIPOLE MOMENT
-------------
                                X             Y             Z
Electronic contribution:      0.00012      -0.00000       0.94123
Nuclear contribution   :     -0.00003      -0.00000      -1.25671
                        -----------------------------------------
Total Dipole Moment    :      0.00010      -0.00000      -0.31548
                        -----------------------------------------
Magnitude (a.u.)       :      0.31548
Magnitude (Debye)      :      0.80188

Dispersion correction in the Hessian             ... done   (      0.1 sec)

VIBRATIONAL FREQUENCIES
-----------------------

Scaling factor for frequencies =  1.000000000  (already applied!)

   0:         0.00 cm**-1
   1:         0.00 cm**-1
   2:         0.00 cm**-1
   3:         0.00 cm**-1
   4:         0.00 cm**-1
   5:         0.00 cm**-1
   6:      1362.30 cm**-1
   7:      1377.57 cm**-1
   8:      1378.76 cm**-1
   9:      3037.29 cm**-1
  10:      3048.61 cm**-1
  11:      3048.79 cm**-1

IR SPECTRUM
-----------

 Mode   freq       eps      Int      T**2         TX        TY        TZ
       cm**-1   L/(mol*cm) km/mol    a.u.
----------------------------------------------------------------------------
  6:   1362.30   0.001295    6.54  0.000297  ( 0.001851  0.000000 -0.017122)
  7:   1377.57   0.001121    5.66  0.000254  (-0.000001  0.015935  0.000000)
  8:   1378.76   0.001153    5.82  0.000261  (-0.016046 -0.000001 -0.001842)
  9:   3037.29   0.000017    0.08  0.000002  (-0.000531  0.000001  0.001202)
 10:   3048.61   0.008375   42.32  0.000857  ( 0.029279  0.000018  0.000056)
 11:   3048.79   0.008543   43.17  0.000874  (-0.000017  0.029571 -0.000000)

--------------------------
THERMOCHEMISTRY AT 298.15K
--------------------------

Temperature         ... 298.15 K
Pressure            ... 1.00 atm
Total Mass          ... 15.03 AMU

Throughout the following assumptions are being made:
  (1) The electronic state is orbitally nondegenerate
      but the spin degeneracy is treated
  (2) There are no thermally accessible electronically excited states
  (3) Hindered rotations indicated by low frequency modes are not
      treated as such but are treated as vibrations and this may
      cause some error
  (4) All equations used are the standard statistical mechanics
      equations for an ideal gas
  (5) All vibrations are strictly harmonic

freq.    1362.30  E(vib)   ...       0.01
freq.    1377.57  E(vib)   ...       0.01
freq.    1378.76  E(vib)   ...       0.01
freq.    3037.29  E(vib)   ...       0.00
freq.    3048.61  E(vib)   ...       0.00
freq.    3048.79  E(vib)   ...       0.00

------------
INNER ENERGY
------------

The inner energy is: U= E(el) + E(ZPE) + E(vib) + E(rot) + E(trans)
    E(el)   - is the total energy from the electronic structure calculation
              = E(kin-el) + E(nuc-el) + E(el-el) + E(nuc-nuc)
    E(ZPE)  - the the zero temperature vibrational energy from the frequency calculation
    E(vib)  - the the finite temperature correction to E(ZPE) due to population
              of excited vibrational states
    E(rot)  - is the rotational thermal energy
    E(trans)- is the translational thermal energy

Summary of contributions to the inner energy U:
Electronic energy                ...    -39.79907696 Eh
Zero point energy                ...      0.03019328 Eh      18.95 kcal/mol
Thermal vibrational correction   ...      0.00002496 Eh       0.02 kcal/mol
Thermal rotational correction    ...      0.00141627 Eh       0.89 kcal/mol
Thermal translational correction ...      0.00141627 Eh       0.89 kcal/mol
-----------------------------------------------------------------------
Total thermal energy                    -39.76602617 Eh

Summary of corrections to the electronic energy:
(perhaps to be used in another calculation)
Total thermal correction                  0.00285751 Eh       1.79 kcal/mol
Non-thermal (ZPE) correction              0.03019328 Eh      18.95 kcal/mol
-----------------------------------------------------------------------
Total correction                          0.03305078 Eh      20.74 kcal/mol

--------
ENTHALPY
--------

The enthalpy is H = U + kB*T
                kB is Boltzmann's constant
Total free energy                 ...    -39.76602617 Eh
Thermal Enthalpy correction       ...      0.00094421 Eh       0.59 kcal/mol
-----------------------------------------------------------------------
Total Enthalpy                    ...    -39.76508196 Eh

Note: Rotational entropy computed according to Herzberg
Infrared and Raman Spectra, Chapter V,1, Van Nostrand Reinhold, 1945
Point Group:  C3v, Symmetry Number:   3
Rotational constants in cm-1:     7.974068     7.973881     6.200383

Vibrational entropy computed according to the QRRHO of S. Grimme
Chem.Eur.J. 2012 18 9955

-------
ENTROPY
-------

The entropy contributions are T*S = T*(S(el)+S(vib)+S(rot)+S(trans))
     S(el)   - electronic entropy
     S(vib)  - vibrational entropy
     S(rot)  - rotational entropy
     S(trans)- translational entropy
The entropies will be listed as multiplied by the temperature to get
units of energy

Electronic entropy                ...      0.00065446 Eh      0.41 kcal/mol
Vibrational entropy               ...      0.00002874 Eh      0.02 kcal/mol
Rotational entropy                ...      0.00565185 Eh      3.55 kcal/mol
Translational entropy             ...      0.01618771 Eh     10.16 kcal/mol
-----------------------------------------------------------------------
Final entropy term                ...      0.02252275 Eh     14.13 kcal/mol

In case the symmetry of your molecule has not been determined correctly
or in case you have a reason to use a different symmetry number we print
out the resulting rotational entropy values for sn=1,12 :
 --------------------------------------------------------
|  sn= 1 | S(rot)=       0.00668914 Eh      4.20 kcal/mol|
|  sn= 2 | S(rot)=       0.00603468 Eh      3.79 kcal/mol|
|  sn= 3 | S(rot)=       0.00565185 Eh      3.55 kcal/mol|
|  sn= 4 | S(rot)=       0.00538022 Eh      3.38 kcal/mol|
|  sn= 5 | S(rot)=       0.00516954 Eh      3.24 kcal/mol|
|  sn= 6 | S(rot)=       0.00499739 Eh      3.14 kcal/mol|
|  sn= 7 | S(rot)=       0.00485184 Eh      3.04 kcal/mol|
|  sn= 8 | S(rot)=       0.00472577 Eh      2.97 kcal/mol|
|  sn= 9 | S(rot)=       0.00461456 Eh      2.90 kcal/mol|
|  sn=10 | S(rot)=       0.00451508 Eh      2.83 kcal/mol|
|  sn=11 | S(rot)=       0.00442509 Eh      2.78 kcal/mol|
|  sn=12 | S(rot)=       0.00434293 Eh      2.73 kcal/mol|
 --------------------------------------------------------

-------------------
GIBBS FREE ENERGY
-------------------

The Gibbs free energy is G = H - T*S

Total enthalpy                    ...    -39.76508196 Eh
Total entropy correction          ...     -0.02252275 Eh    -14.13 kcal/mol
-----------------------------------------------------------------------
Final Gibbs free energy         ...    -39.78760471 Eh

For completeness - the Gibbs free energy minus the electronic energy
G-E(el)                           ...      0.01147225 Eh      7.20 kcal/mol

                             ****ORCA TERMINATED NORMALLY****
TOTAL RUN TIME: 0 days 0 hours 1 minutes 15 seconds 575 msec
