                         Program Version 5.0.4 -  RELEASE  -
|  1> ! UKS TightSCF wB97x-D3 def2-TZVPD xyzfile opt freq
|  2>
|  3> # CH3 radical 116.5 degrees fixed
|  4>
|  5> %maxcore 1000
|  6> %pal
|  7> nprocs 18
|  8> end
|  9>
| 10> %geom Constraints
| 11>         { A * 0 * C }
| 12>     end
| 13> end
| 14> * xyz 0 2
| 15> C 0.00 0.00 0.00
| 16> H 1.0604543458 0.0000000000 -0.2045399240
| 17> H -0.5302271729 0.9183804030 -0.2045399240
| 18> H -0.5302271729 -0.9183804030 -0.2045399240
| 19> **                         ****END OF INPUT****
 Total Charge           Charge          ....    0
 Multiplicity           Mult            ....    2
 Number of Electrons    NEL             ....    9
Dispersion correction           -0.000015959
FINAL SINGLE POINT ENERGY       -39.837102113860
Dispersion correction            ... done
Dispersion correction           -0.000016305
FINAL SINGLE POINT ENERGY       -39.837119171850
Dispersion correction            ... done
                    ***********************HURRAY********************

CARTESIAN COORDINATES (ANGSTROEM)
---------------------------------
  C     -0.000006   -0.000000    0.000417
  H      1.063346   -0.000000   -0.204680
  H     -0.531670    0.920869   -0.204678
  H     -0.531670   -0.920869   -0.204678

 Multiplicity           Mult            ....    2
 Number of Electrons    NEL             ....    9
 Basis Dimension        Dim             ....   64

ORBITAL ENERGIES
----------------
                 SPIN UP ORBITALS
  NO   OCC          E(Eh)            E(eV)
   0   1.0000     -10.288135      -279.9544
   1   1.0000      -0.804008       -21.8782
   2   1.0000      -0.516616       -14.0578
   3   1.0000      -0.516601       -14.0574
   4   1.0000      -0.337606        -9.1867
   5   0.0000       0.076240         2.0746
   6   0.0000       0.161206         4.3866
   7   0.0000       0.161210         4.3867
   8   0.0000       0.200164         5.4467
   9   0.0000       0.201406         5.4805

                 SPIN DOWN ORBITALS
  NO   OCC          E(Eh)            E(eV)
   0   1.0000     -10.277810      -279.6734
   1   1.0000      -0.760455       -20.6930
   2   1.0000      -0.503555       -13.7024
   3   1.0000      -0.503536       -13.7019
   4   0.0000       0.003177         0.0865
   5   0.0000       0.086175         2.3450
   6   0.0000       0.165296         4.4979
   7   0.0000       0.165298         4.4980
   8   0.0000       0.202366         5.5067

MULLIKEN ATOMIC CHARGES AND SPIN POPULATIONS
--------------------------------------------
   0 C :   -0.728553    0.906326
   1 H :    0.242722    0.031163
   2 H :    0.242913    0.031256
   3 H :    0.242918    0.031255
Sum of atomic charges         :   -0.0000000

LOEWDIN ATOMIC CHARGES AND SPIN POPULATIONS
-------------------------------------------
   0 C :    0.057795    0.835447
   1 H :   -0.019263    0.054861
   2 H :   -0.019266    0.054846
   3 H :   -0.019266    0.054846

  Mayer bond orders larger than 0.100000
B(  0-C ,  1-H ) :   0.9614 B(  0-C ,  2-H ) :   0.9610 B(  0-C ,  3-H ) :   0.9610

Dispersion correction           -0.000016308
FINAL SINGLE POINT ENERGY       -39.837119174133

DIPOLE MOMENT
-------------
                                X             Y             Z
Electronic contribution:     -0.00001       0.00000       0.30057
Nuclear contribution   :      0.00002       0.00000      -0.46115
                        -----------------------------------------
Total Dipole Moment    :      0.00001       0.00000      -0.16058
                        -----------------------------------------
Magnitude (a.u.)       :      0.16058
Magnitude (Debye)      :      0.40815

Dispersion correction in the Hessian             ... done   (      0.1 sec)

VIBRATIONAL FREQUENCIES
-----------------------

Scaling factor for frequencies =  1.000000000  (already applied!)

   0:         0.00 cm**-1
   1:         0.00 cm**-1
   2:         0.00 cm**-1
   3:         0.00 cm**-1
   4:         0.00 cm**-1
   5:         0.00 cm**-1
   6:       848.16 cm**-1
   7:      1414.11 cm**-1
   8:      1420.51 cm**-1
   9:      3111.69 cm**-1
  10:      3270.55 cm**-1
  11:      3271.53 cm**-1

IR SPECTRUM
-----------

 Mode   freq       eps      Int      T**2         TX        TY        TZ
       cm**-1   L/(mol*cm) km/mol    a.u.
----------------------------------------------------------------------------
  6:    848.16   0.009556   48.29  0.003516  ( 0.000147 -0.000000 -0.059295)
  7:   1414.11   0.000565    2.85  0.000125  ( 0.011149 -0.000000 -0.000541)
  8:   1420.51   0.000565    2.86  0.000124  (-0.000000 -0.011145 -0.000000)
  9:   3111.69   0.000006    0.03  0.000001  ( 0.000108 -0.000000 -0.000768)
 10:   3270.55   0.001846    9.33  0.000176  ( 0.013272  0.000000  0.000028)
 11:   3271.53   0.001827    9.23  0.000174  (-0.000000  0.013201  0.000000)

--------------------------
THERMOCHEMISTRY AT 298.15K
--------------------------

Temperature         ... 298.15 K
Pressure            ... 1.00 atm
Total Mass          ... 15.03 AMU

Throughout the following assumptions are being made:
  (1) The electronic state is orbitally nondegenerate
      but the spin degeneracy is treated
  (2) There are no thermally accessible electronically excited states
  (3) Hindered rotations indicated by low frequency modes are not
      treated as such but are treated as vibrations and this may
      cause some error
  (4) All equations used are the standard statistical mechanics
      equations for an ideal gas
  (5) All vibrations are strictly harmonic

freq.     848.16  E(vib)   ...       0.04
freq.    1414.11  E(vib)   ...       0.00
freq.    1420.51  E(vib)   ...       0.00
freq.    3111.69  E(vib)   ...       0.00
freq.    3270.55  E(vib)   ...       0.00
freq.    3271.53  E(vib)   ...       0.00

------------
INNER ENERGY
------------

The inner energy is: U= E(el) + E(ZPE) + E(vib) + E(rot) + E(trans)
    E(el)   - is the total energy from the electronic structure calculation
              = E(kin-el) + E(nuc-el) + E(el-el) + E(nuc-nuc)
    E(ZPE)  - the the zero temperature vibrational energy from the frequency calculation
    E(vib)  - the the finite temperature correction to E(ZPE) due to population
              of excited vibrational states
    E(rot)  - is the rotational thermal energy
    E(trans)- is the translational thermal energy

Summary of contributions to the inner energy U:
Electronic energy                ...    -39.83711917 Eh
Zero point energy                ...      0.03038292 Eh      19.07 kcal/mol
Thermal vibrational correction   ...      0.00007945 Eh       0.05 kcal/mol
Thermal rotational correction    ...      0.00141627 Eh       0.89 kcal/mol
Thermal translational correction ...      0.00141627 Eh       0.89 kcal/mol
-----------------------------------------------------------------------
Total thermal energy                    -39.80382426 Eh

Summary of corrections to the electronic energy:
(perhaps to be used in another calculation)
Total thermal correction                  0.00291200 Eh       1.83 kcal/mol
Non-thermal (ZPE) correction              0.03038292 Eh      19.07 kcal/mol
-----------------------------------------------------------------------
Total correction                          0.03329491 Eh      20.89 kcal/mol

--------
ENTHALPY
--------

The enthalpy is H = U + kB*T
                kB is Boltzmann's constant
Total free energy                 ...    -39.80382426 Eh
Thermal Enthalpy correction       ...      0.00094421 Eh       0.59 kcal/mol
-----------------------------------------------------------------------
Total Enthalpy                    ...    -39.80288005 Eh

Note: Rotational entropy computed according to Herzberg
Infrared and Raman Spectra, Chapter V,1, Van Nostrand Reinhold, 1945
Point Group:  C3v, Symmetry Number:   3
Rotational constants in cm-1:     9.307521     9.307261     4.930311

Vibrational entropy computed according to the QRRHO of S. Grimme
Chem.Eur.J. 2012 18 9955

-------
ENTROPY
-------

The entropy contributions are T*S = T*(S(el)+S(vib)+S(rot)+S(trans))
     S(el)   - electronic entropy
     S(vib)  - vibrational entropy
     S(rot)  - rotational entropy
     S(trans)- translational entropy
The entropies will be listed as multiplied by the temperature to get
units of energy

Electronic entropy                ...      0.00065446 Eh      0.41 kcal/mol
Vibrational entropy               ...      0.00009742 Eh      0.06 kcal/mol
Rotational entropy                ...      0.00561406 Eh      3.52 kcal/mol
Translational entropy             ...      0.01618771 Eh     10.16 kcal/mol
-----------------------------------------------------------------------
Final entropy term                ...      0.02255365 Eh     14.15 kcal/mol

In case the symmetry of your molecule has not been determined correctly
or in case you have a reason to use a different symmetry number we print
out the resulting rotational entropy values for sn=1,12 :
 --------------------------------------------------------
|  sn= 1 | S(rot)=       0.00665135 Eh      4.17 kcal/mol|
|  sn= 2 | S(rot)=       0.00599689 Eh      3.76 kcal/mol|
|  sn= 3 | S(rot)=       0.00561406 Eh      3.52 kcal/mol|
|  sn= 4 | S(rot)=       0.00534244 Eh      3.35 kcal/mol|
|  sn= 5 | S(rot)=       0.00513175 Eh      3.22 kcal/mol|
|  sn= 6 | S(rot)=       0.00495960 Eh      3.11 kcal/mol|
|  sn= 7 | S(rot)=       0.00481406 Eh      3.02 kcal/mol|
|  sn= 8 | S(rot)=       0.00468798 Eh      2.94 kcal/mol|
|  sn= 9 | S(rot)=       0.00457677 Eh      2.87 kcal/mol|
|  sn=10 | S(rot)=       0.00447729 Eh      2.81 kcal/mol|
|  sn=11 | S(rot)=       0.00438730 Eh      2.75 kcal/mol|
|  sn=12 | S(rot)=       0.00430515 Eh      2.70 kcal/mol|
 --------------------------------------------------------

-------------------
GIBBS FREE ENERGY
-------------------

The Gibbs free energy is G = H - T*S

Total enthalpy                    ...    -39.80288005 Eh
Total entropy correction          ...     -0.02255365 Eh    -14.15 kcal/mol
-----------------------------------------------------------------------
Final Gibbs free energy         ...    -39.82543370 Eh

For completeness - the Gibbs free energy minus the electronic energy
G-E(el)                           ...      0.01168547 Eh      7.33 kcal/mol

                             ****ORCA TERMINATED NORMALLY****
TOTAL RUN TIME: 0 days 0 hours 0 minutes 53 seconds 398 msec
