                         Program Version 5.0.4 -  RELEASE  -
|  1> ! UKS TightSCF wB97x-D3 def2-TZVPD xyzfile opt freq
|  2>
|  3> # CH3 radical 101.0 degrees fixed
|  4>
|  5> %maxcore 1000
|  6> %pal
|  7> nprocs 18
|  8> end
|  9>
| 10> %geom Constraints
| 11>         { A * 0 * C }
| 12>     end
| 13> end
| 14> * xyz 0 2
| 15> C 0.00 0.00 0.00
| 16> H 0.9622749476 0.0000000000 -0.4903334837
| 17> H -0.4811374738 0.8333545501 -0.4903334837
| 18> H -0.4811374738 -0.8333545501 -0.4903334837
| 19> **                         ****END OF INPUT****
 Total Charge           Charge          ....    0
 Multiplicity           Mult            ....    2
 Number of Electrons    NEL             ....    9
Dispersion correction           -0.000007431
FINAL SINGLE POINT ENERGY       -39.810666503587
Dispersion correction            ... done
Dispersion correction           -0.000008351
FINAL SINGLE POINT ENERGY       -39.811186212371
Dispersion correction            ... done
Dispersion correction           -0.000008398
FINAL SINGLE POINT ENERGY       -39.811187396263
Dispersion correction            ... done
                    ***********************HURRAY********************

CARTESIAN COORDINATES (ANGSTROEM)
---------------------------------
  C      0.000014    0.000000    0.005664
  H      0.977077    0.000000   -0.492217
  H     -0.488546    0.846202   -0.492224
  H     -0.488546   -0.846202   -0.492224

 Multiplicity           Mult            ....    2
 Number of Electrons    NEL             ....    9
 Basis Dimension        Dim             ....   64

ORBITAL ENERGIES
----------------
                 SPIN UP ORBITALS
  NO   OCC          E(Eh)            E(eV)
   0   1.0000     -10.299964      -280.2763
   1   1.0000      -0.814215       -22.1559
   2   1.0000      -0.493054       -13.4167
   3   1.0000      -0.493012       -13.4155
   4   1.0000      -0.384104       -10.4520
   5   0.0000       0.074714         2.0331
   6   0.0000       0.160448         4.3660
   7   0.0000       0.160454         4.3662
   8   0.0000       0.178215         4.8495
   9   0.0000       0.193773         5.2728

                 SPIN DOWN ORBITALS
  NO   OCC          E(Eh)            E(eV)
   0   1.0000     -10.288404      -279.9617
   1   1.0000      -0.777825       -21.1657
   2   1.0000      -0.477724       -12.9995
   3   1.0000      -0.477717       -12.9994
   4   0.0000      -0.032100        -0.8735
   5   0.0000       0.083008         2.2588
   6   0.0000       0.165801         4.5117
   7   0.0000       0.165809         4.5119
   8   0.0000       0.199729         5.4349

MULLIKEN ATOMIC CHARGES AND SPIN POPULATIONS
--------------------------------------------
   0 C :   -0.669759    0.892014
   1 H :    0.222933    0.035954
   2 H :    0.223414    0.036016
   3 H :    0.223411    0.036016
Sum of atomic charges         :   -0.0000000

LOEWDIN ATOMIC CHARGES AND SPIN POPULATIONS
-------------------------------------------
   0 C :    0.043420    0.839561
   1 H :   -0.014524    0.053483
   2 H :   -0.014448    0.053478
   3 H :   -0.014448    0.053478

  Mayer bond orders larger than 0.100000
B(  0-C ,  1-H ) :   1.0128 B(  0-C ,  2-H ) :   1.0123 B(  0-C ,  3-H ) :   1.0123

Dispersion correction           -0.000008400
FINAL SINGLE POINT ENERGY       -39.811187398044

DIPOLE MOMENT
-------------
                                X             Y             Z
Electronic contribution:     -0.00000      -0.00000       0.82194
Nuclear contribution   :     -0.00004      -0.00000      -1.11947
                        -----------------------------------------
Total Dipole Moment    :     -0.00005      -0.00000      -0.29753
                        -----------------------------------------
Magnitude (a.u.)       :      0.29753
Magnitude (Debye)      :      0.75626

Dispersion correction in the Hessian             ... done   (      0.1 sec)

VIBRATIONAL FREQUENCIES
-----------------------

Scaling factor for frequencies =  1.000000000  (already applied!)

   0:         0.00 cm**-1
   1:         0.00 cm**-1
   2:         0.00 cm**-1
   3:         0.00 cm**-1
   4:         0.00 cm**-1
   5:         0.00 cm**-1
   6:      1304.60 cm**-1
   7:      1396.97 cm**-1
   8:      1399.25 cm**-1
   9:      3050.63 cm**-1
  10:      3098.40 cm**-1
  11:      3098.55 cm**-1

IR SPECTRUM
-----------

 Mode   freq       eps      Int      T**2         TX        TY        TZ
       cm**-1   L/(mol*cm) km/mol    a.u.
----------------------------------------------------------------------------
  6:   1304.60   0.001734    8.76  0.000415  ( 0.000023 -0.000000  0.020364)
  7:   1396.97   0.000889    4.49  0.000199  ( 0.000000 -0.014091 -0.000000)
  8:   1399.25   0.000899    4.55  0.000201  (-0.014163 -0.000000 -0.000092)
  9:   3050.63   0.000016    0.08  0.000002  ( 0.000095 -0.000000 -0.001280)
 10:   3098.40   0.006884   34.79  0.000693  (-0.026331  0.000002 -0.000051)
 11:   3098.55   0.007051   35.63  0.000710  ( 0.000002  0.026648  0.000000)

--------------------------
THERMOCHEMISTRY AT 298.15K
--------------------------

Temperature         ... 298.15 K
Pressure            ... 1.00 atm
Total Mass          ... 15.03 AMU

Throughout the following assumptions are being made:
  (1) The electronic state is orbitally nondegenerate
      but the spin degeneracy is treated
  (2) There are no thermally accessible electronically excited states
  (3) Hindered rotations indicated by low frequency modes are not
      treated as such but are treated as vibrations and this may
      cause some error
  (4) All equations used are the standard statistical mechanics
      equations for an ideal gas
  (5) All vibrations are strictly harmonic

freq.    1304.60  E(vib)   ...       0.01
freq.    1396.97  E(vib)   ...       0.00
freq.    1399.25  E(vib)   ...       0.00
freq.    3050.63  E(vib)   ...       0.00
freq.    3098.40  E(vib)   ...       0.00
freq.    3098.55  E(vib)   ...       0.00

------------
INNER ENERGY
------------

The inner energy is: U= E(el) + E(ZPE) + E(vib) + E(rot) + E(trans)
    E(el)   - is the total energy from the electronic structure calculation
              = E(kin-el) + E(nuc-el) + E(el-el) + E(nuc-nuc)
    E(ZPE)  - the the zero temperature vibrational energy from the frequency calculation
    E(vib)  - the the finite temperature correction to E(ZPE) due to population
              of excited vibrational states
    E(rot)  - is the rotational thermal energy
    E(trans)- is the translational thermal energy

Summary of contributions to the inner energy U:
Electronic energy                ...    -39.81118740 Eh
Zero point energy                ...      0.03040989 Eh      19.08 kcal/mol
Thermal vibrational correction   ...      0.00002599 Eh       0.02 kcal/mol
Thermal rotational correction    ...      0.00141627 Eh       0.89 kcal/mol
Thermal translational correction ...      0.00141627 Eh       0.89 kcal/mol
-----------------------------------------------------------------------
Total thermal energy                    -39.77791898 Eh

Summary of corrections to the electronic energy:
(perhaps to be used in another calculation)
Total thermal correction                  0.00285853 Eh       1.79 kcal/mol
Non-thermal (ZPE) correction              0.03040989 Eh      19.08 kcal/mol
-----------------------------------------------------------------------
Total correction                          0.03326842 Eh      20.88 kcal/mol

--------
ENTHALPY
--------

The enthalpy is H = U + kB*T
                kB is Boltzmann's constant
Total free energy                 ...    -39.77791898 Eh
Thermal Enthalpy correction       ...      0.00094421 Eh       0.59 kcal/mol
-----------------------------------------------------------------------
Total Enthalpy                    ...    -39.77697477 Eh

Note: Rotational entropy computed according to Herzberg
Infrared and Raman Spectra, Chapter V,1, Van Nostrand Reinhold, 1945
Point Group:  C3v, Symmetry Number:   3
Rotational constants in cm-1:     8.254091     8.253752     5.839028

Vibrational entropy computed according to the QRRHO of S. Grimme
Chem.Eur.J. 2012 18 9955

-------
ENTROPY
-------

The entropy contributions are T*S = T*(S(el)+S(vib)+S(rot)+S(trans))
     S(el)   - electronic entropy
     S(vib)  - vibrational entropy
     S(rot)  - rotational entropy
     S(trans)- translational entropy
The entropies will be listed as multiplied by the temperature to get
units of energy

Electronic entropy                ...      0.00065446 Eh      0.41 kcal/mol
Vibrational entropy               ...      0.00002996 Eh      0.02 kcal/mol
Rotational entropy                ...      0.00564762 Eh      3.54 kcal/mol
Translational entropy             ...      0.01618771 Eh     10.16 kcal/mol
-----------------------------------------------------------------------
Final entropy term                ...      0.02251974 Eh     14.13 kcal/mol

In case the symmetry of your molecule has not been determined correctly
or in case you have a reason to use a different symmetry number we print
out the resulting rotational entropy values for sn=1,12 :
 --------------------------------------------------------
|  sn= 1 | S(rot)=       0.00668490 Eh      4.19 kcal/mol|
|  sn= 2 | S(rot)=       0.00603045 Eh      3.78 kcal/mol|
|  sn= 3 | S(rot)=       0.00564762 Eh      3.54 kcal/mol|
|  sn= 4 | S(rot)=       0.00537599 Eh      3.37 kcal/mol|
|  sn= 5 | S(rot)=       0.00516530 Eh      3.24 kcal/mol|
|  sn= 6 | S(rot)=       0.00499316 Eh      3.13 kcal/mol|
|  sn= 7 | S(rot)=       0.00484761 Eh      3.04 kcal/mol|
|  sn= 8 | S(rot)=       0.00472154 Eh      2.96 kcal/mol|
|  sn= 9 | S(rot)=       0.00461033 Eh      2.89 kcal/mol|
|  sn=10 | S(rot)=       0.00451085 Eh      2.83 kcal/mol|
|  sn=11 | S(rot)=       0.00442086 Eh      2.77 kcal/mol|
|  sn=12 | S(rot)=       0.00433870 Eh      2.72 kcal/mol|
 --------------------------------------------------------

-------------------
GIBBS FREE ENERGY
-------------------

The Gibbs free energy is G = H - T*S

Total enthalpy                    ...    -39.77697477 Eh
Total entropy correction          ...     -0.02251974 Eh    -14.13 kcal/mol
-----------------------------------------------------------------------
Final Gibbs free energy         ...    -39.79949451 Eh

For completeness - the Gibbs free energy minus the electronic energy
G-E(el)                           ...      0.01169289 Eh      7.34 kcal/mol

                             ****ORCA TERMINATED NORMALLY****
TOTAL RUN TIME: 0 days 0 hours 1 minutes 14 seconds 432 msec
