                         Program Version 5.0.4 -  RELEASE  -
|  1> ! UKS TightSCF wB97x-D3 def2-TZVPD xyzfile opt freq
|  2>
|  3> # CH3 radical 104.0 degrees fixed
|  4>
|  5> %maxcore 1000
|  6> %pal
|  7> nprocs 18
|  8> end
|  9>
| 10> %geom Constraints
| 11>         { A * 0 * C }
| 12>     end
| 13> end
| 14> * xyz 0 2
| 15> C 0.00 0.00 0.00
| 16> H 0.9827097568 0.0000000000 -0.4479749256
| 17> H -0.4913548784 0.8510516139 -0.4479749256
| 18> H -0.4913548784 -0.8510516139 -0.4479749256
| 19> **                         ****END OF INPUT****
 Total Charge           Charge          ....    0
 Multiplicity           Mult            ....    2
 Number of Electrons    NEL             ....    9
Dispersion correction           -0.000008762
FINAL SINGLE POINT ENERGY       -39.817734162002
Dispersion correction            ... done
Dispersion correction           -0.000009675
FINAL SINGLE POINT ENERGY       -39.818106534028
Dispersion correction            ... done
Dispersion correction           -0.000009714
FINAL SINGLE POINT ENERGY       -39.818107158105
Dispersion correction            ... done
                    ***********************HURRAY********************

CARTESIAN COORDINATES (ANGSTROEM)
---------------------------------
  C      0.000019    0.000000    0.004361
  H      0.995439    0.000000   -0.449423
  H     -0.497729    0.862115   -0.449431
  H     -0.497729   -0.862115   -0.449431

 Multiplicity           Mult            ....    2
 Number of Electrons    NEL             ....    9
 Basis Dimension        Dim             ....   64

ORBITAL ENERGIES
----------------
                 SPIN UP ORBITALS
  NO   OCC          E(Eh)            E(eV)
   0   1.0000     -10.297626      -280.2126
   1   1.0000      -0.811795       -22.0901
   2   1.0000      -0.497924       -13.5492
   3   1.0000      -0.497880       -13.5480
   4   1.0000      -0.375377       -10.2145
   5   0.0000       0.075180         2.0458
   6   0.0000       0.160689         4.3726
   7   0.0000       0.160695         4.3727
   8   0.0000       0.184429         5.0186
   9   0.0000       0.194447         5.2912

                 SPIN DOWN ORBITALS
  NO   OCC          E(Eh)            E(eV)
   0   1.0000     -10.286306      -279.9046
   1   1.0000      -0.774213       -21.0674
   2   1.0000      -0.482987       -13.1427
   3   1.0000      -0.482972       -13.1423
   4   0.0000      -0.025078        -0.6824
   5   0.0000       0.083773         2.2796
   6   0.0000       0.165844         4.5129
   7   0.0000       0.165849         4.5130
   8   0.0000       0.199598         5.4313

MULLIKEN ATOMIC CHARGES AND SPIN POPULATIONS
--------------------------------------------
   0 C :   -0.678804    0.887601
   1 H :    0.225945    0.037406
   2 H :    0.226429    0.037496
   3 H :    0.226429    0.037496
Sum of atomic charges         :    0.0000000

LOEWDIN ATOMIC CHARGES AND SPIN POPULATIONS
-------------------------------------------
   0 C :    0.046142    0.838227
   1 H :   -0.015438    0.053929
   2 H :   -0.015352    0.053922
   3 H :   -0.015352    0.053922

  Mayer bond orders larger than 0.100000
B(  0-C ,  1-H ) :   1.0051 B(  0-C ,  2-H ) :   1.0045 B(  0-C ,  3-H ) :   1.0045

Dispersion correction           -0.000009716
FINAL SINGLE POINT ENERGY       -39.818107159847

DIPOLE MOMENT
-------------
                                X             Y             Z
Electronic contribution:      0.00002      -0.00000       0.73715
Nuclear contribution   :     -0.00006      -0.00000      -1.02032
                        -----------------------------------------
Total Dipole Moment    :     -0.00003      -0.00000      -0.28317
                        -----------------------------------------
Magnitude (a.u.)       :      0.28317
Magnitude (Debye)      :      0.71976

Dispersion correction in the Hessian             ... done   (      0.1 sec)

VIBRATIONAL FREQUENCIES
-----------------------

Scaling factor for frequencies =  1.000000000  (already applied!)

   0:         0.00 cm**-1
   1:         0.00 cm**-1
   2:         0.00 cm**-1
   3:         0.00 cm**-1
   4:         0.00 cm**-1
   5:         0.00 cm**-1
   6:      1253.67 cm**-1
   7:      1404.30 cm**-1
   8:      1407.17 cm**-1
   9:      3059.97 cm**-1
  10:      3131.04 cm**-1
  11:      3131.10 cm**-1

IR SPECTRUM
-----------

 Mode   freq       eps      Int      T**2         TX        TY        TZ
       cm**-1   L/(mol*cm) km/mol    a.u.
----------------------------------------------------------------------------
  6:   1253.67   0.002220   11.22  0.000553  ( 0.000141 -0.000000  0.023507)
  7:   1404.30   0.000781    3.95  0.000173  ( 0.000000 -0.013172 -0.000000)
  8:   1407.17   0.000773    3.90  0.000171  (-0.013090 -0.000000 -0.000062)
  9:   3059.97   0.000017    0.09  0.000002  ( 0.000021  0.000000  0.001319)
 10:   3131.04   0.006040   30.52  0.000602  ( 0.000052  0.024535  0.000000)
 11:   3131.10   0.005893   29.78  0.000587  ( 0.024235 -0.000053  0.000022)

--------------------------
THERMOCHEMISTRY AT 298.15K
--------------------------

Temperature         ... 298.15 K
Pressure            ... 1.00 atm
Total Mass          ... 15.03 AMU

Throughout the following assumptions are being made:
  (1) The electronic state is orbitally nondegenerate
      but the spin degeneracy is treated
  (2) There are no thermally accessible electronically excited states
  (3) Hindered rotations indicated by low frequency modes are not
      treated as such but are treated as vibrations and this may
      cause some error
  (4) All equations used are the standard statistical mechanics
      equations for an ideal gas
  (5) All vibrations are strictly harmonic

freq.    1253.67  E(vib)   ...       0.01
freq.    1404.30  E(vib)   ...       0.00
freq.    1407.17  E(vib)   ...       0.00
freq.    3059.97  E(vib)   ...       0.00
freq.    3131.04  E(vib)   ...       0.00
freq.    3131.10  E(vib)   ...       0.00

------------
INNER ENERGY
------------

The inner energy is: U= E(el) + E(ZPE) + E(vib) + E(rot) + E(trans)
    E(el)   - is the total energy from the electronic structure calculation
              = E(kin-el) + E(nuc-el) + E(el-el) + E(nuc-nuc)
    E(ZPE)  - the the zero temperature vibrational energy from the frequency calculation
    E(vib)  - the the finite temperature correction to E(ZPE) due to population
              of excited vibrational states
    E(rot)  - is the rotational thermal energy
    E(trans)- is the translational thermal energy

Summary of contributions to the inner energy U:
Electronic energy                ...    -39.81810716 Eh
Zero point energy                ...      0.03049837 Eh      19.14 kcal/mol
Thermal vibrational correction   ...      0.00002804 Eh       0.02 kcal/mol
Thermal rotational correction    ...      0.00141627 Eh       0.89 kcal/mol
Thermal translational correction ...      0.00141627 Eh       0.89 kcal/mol
-----------------------------------------------------------------------
Total thermal energy                    -39.78474821 Eh

Summary of corrections to the electronic energy:
(perhaps to be used in another calculation)
Total thermal correction                  0.00286058 Eh       1.80 kcal/mol
Non-thermal (ZPE) correction              0.03049837 Eh      19.14 kcal/mol
-----------------------------------------------------------------------
Total correction                          0.03335895 Eh      20.93 kcal/mol

--------
ENTHALPY
--------

The enthalpy is H = U + kB*T
                kB is Boltzmann's constant
Total free energy                 ...    -39.78474821 Eh
Thermal Enthalpy correction       ...      0.00094421 Eh       0.59 kcal/mol
-----------------------------------------------------------------------
Total Enthalpy                    ...    -39.78380400 Eh

Note: Rotational entropy computed according to Herzberg
Infrared and Raman Spectra, Chapter V,1, Van Nostrand Reinhold, 1945
Point Group:  C3v, Symmetry Number:   3
Rotational constants in cm-1:     8.446869     8.446364     5.625526

Vibrational entropy computed according to the QRRHO of S. Grimme
Chem.Eur.J. 2012 18 9955

-------
ENTROPY
-------

The entropy contributions are T*S = T*(S(el)+S(vib)+S(rot)+S(trans))
     S(el)   - electronic entropy
     S(vib)  - vibrational entropy
     S(rot)  - rotational entropy
     S(trans)- translational entropy
The entropies will be listed as multiplied by the temperature to get
units of energy

Electronic entropy                ...      0.00065446 Eh      0.41 kcal/mol
Vibrational entropy               ...      0.00003242 Eh      0.02 kcal/mol
Rotational entropy                ...      0.00564341 Eh      3.54 kcal/mol
Translational entropy             ...      0.01618771 Eh     10.16 kcal/mol
-----------------------------------------------------------------------
Final entropy term                ...      0.02251799 Eh     14.13 kcal/mol

In case the symmetry of your molecule has not been determined correctly
or in case you have a reason to use a different symmetry number we print
out the resulting rotational entropy values for sn=1,12 :
 --------------------------------------------------------
|  sn= 1 | S(rot)=       0.00668070 Eh      4.19 kcal/mol|
|  sn= 2 | S(rot)=       0.00602624 Eh      3.78 kcal/mol|
|  sn= 3 | S(rot)=       0.00564341 Eh      3.54 kcal/mol|
|  sn= 4 | S(rot)=       0.00537179 Eh      3.37 kcal/mol|
|  sn= 5 | S(rot)=       0.00516110 Eh      3.24 kcal/mol|
|  sn= 6 | S(rot)=       0.00498896 Eh      3.13 kcal/mol|
|  sn= 7 | S(rot)=       0.00484341 Eh      3.04 kcal/mol|
|  sn= 8 | S(rot)=       0.00471733 Eh      2.96 kcal/mol|
|  sn= 9 | S(rot)=       0.00460612 Eh      2.89 kcal/mol|
|  sn=10 | S(rot)=       0.00450664 Eh      2.83 kcal/mol|
|  sn=11 | S(rot)=       0.00441665 Eh      2.77 kcal/mol|
|  sn=12 | S(rot)=       0.00433450 Eh      2.72 kcal/mol|
 --------------------------------------------------------

-------------------
GIBBS FREE ENERGY
-------------------

The Gibbs free energy is G = H - T*S

Total enthalpy                    ...    -39.78380400 Eh
Total entropy correction          ...     -0.02251799 Eh    -14.13 kcal/mol
-----------------------------------------------------------------------
Final Gibbs free energy         ...    -39.80632199 Eh

For completeness - the Gibbs free energy minus the electronic energy
G-E(el)                           ...      0.01178517 Eh      7.40 kcal/mol

                             ****ORCA TERMINATED NORMALLY****
TOTAL RUN TIME: 0 days 0 hours 1 minutes 9 seconds 662 msec
