                         Program Version 5.0.4 -  RELEASE  -
|  1> ! UKS TightSCF wB97x-D3 def2-TZVPD xyzfile opt freq
|  2>
|  3> # CH3 radical 101.5 degrees fixed
|  4>
|  5> %maxcore 1000
|  6> %pal
|  7> nprocs 18
|  8> end
|  9>
| 10> %geom Constraints
| 11>         { A * 0 * C }
| 12>     end
| 13> end
| 14> * xyz 0 2
| 15> C 0.00 0.00 0.00
| 16> H 0.9657269313 0.0000000000 -0.4834992184
| 17> H -0.4828634656 0.8363440556 -0.4834992184
| 18> H -0.4828634656 -0.8363440556 -0.4834992184
| 19> **                         ****END OF INPUT****
 Total Charge           Charge          ....    0
 Multiplicity           Mult            ....    2
 Number of Electrons    NEL             ....    9
Dispersion correction           -0.000007643
FINAL SINGLE POINT ENERGY       -39.811909892828
Dispersion correction            ... done
Dispersion correction           -0.000008563
FINAL SINGLE POINT ENERGY       -39.812403276917
Dispersion correction            ... done
Dispersion correction           -0.000008609
FINAL SINGLE POINT ENERGY       -39.812404346105
Dispersion correction            ... done
                    ***********************HURRAY********************

CARTESIAN COORDINATES (ANGSTROEM)
---------------------------------
  C      0.000015   -0.000000    0.005438
  H      0.980188   -0.000000   -0.485307
  H     -0.490102    0.848899   -0.485314
  H     -0.490102   -0.848899   -0.485314

 Multiplicity           Mult            ....    2
 Number of Electrons    NEL             ....    9
 Basis Dimension        Dim             ....   64

ORBITAL ENERGIES
----------------
                 SPIN UP ORBITALS
  NO   OCC          E(Eh)            E(eV)
   0   1.0000     -10.299571      -280.2656
   1   1.0000      -0.813794       -22.1445
   2   1.0000      -0.493876       -13.4390
   3   1.0000      -0.493832       -13.4379
   4   1.0000      -0.382659       -10.4127
   5   0.0000       0.074800         2.0354
   6   0.0000       0.160492         4.3672
   7   0.0000       0.160498         4.3674
   8   0.0000       0.179214         4.8767
   9   0.0000       0.193870         5.2755

                 SPIN DOWN ORBITALS
  NO   OCC          E(Eh)            E(eV)
   0   1.0000     -10.288051      -279.9521
   1   1.0000      -0.777212       -21.1490
   2   1.0000      -0.478607       -13.0235
   3   1.0000      -0.478603       -13.0234
   4   0.0000      -0.030928        -0.8416
   5   0.0000       0.083142         2.2624
   6   0.0000       0.165811         4.5120
   7   0.0000       0.165819         4.5122
   8   0.0000       0.199701         5.4341

MULLIKEN ATOMIC CHARGES AND SPIN POPULATIONS
--------------------------------------------
   0 C :   -0.671189    0.891133
   1 H :    0.223408    0.036242
   2 H :    0.223890    0.036313
   3 H :    0.223891    0.036313
Sum of atomic charges         :   -0.0000000

LOEWDIN ATOMIC CHARGES AND SPIN POPULATIONS
-------------------------------------------
   0 C :    0.043866    0.839325
   1 H :   -0.014675    0.053562
   2 H :   -0.014595    0.053557
   3 H :   -0.014595    0.053557

  Mayer bond orders larger than 0.100000
B(  0-C ,  1-H ) :   1.0116 B(  0-C ,  2-H ) :   1.0111 B(  0-C ,  3-H ) :   1.0111

Dispersion correction           -0.000008611
FINAL SINGLE POINT ENERGY       -39.812404348709

DIPOLE MOMENT
-------------
                                X             Y             Z
Electronic contribution:     -0.00000       0.00000       0.80812
Nuclear contribution   :     -0.00005       0.00000      -1.10342
                        -----------------------------------------
Total Dipole Moment    :     -0.00005       0.00000      -0.29530
                        -----------------------------------------
Magnitude (a.u.)       :      0.29530
Magnitude (Debye)      :      0.75059

Dispersion correction in the Hessian             ... done   (      0.1 sec)

VIBRATIONAL FREQUENCIES
-----------------------

Scaling factor for frequencies =  1.000000000  (already applied!)

   0:         0.00 cm**-1
   1:         0.00 cm**-1
   2:         0.00 cm**-1
   3:         0.00 cm**-1
   4:         0.00 cm**-1
   5:         0.00 cm**-1
   6:      1296.74 cm**-1
   7:      1398.36 cm**-1
   8:      1400.78 cm**-1
   9:      3052.12 cm**-1
  10:      3103.88 cm**-1
  11:      3103.98 cm**-1

IR SPECTRUM
-----------

 Mode   freq       eps      Int      T**2         TX        TY        TZ
       cm**-1   L/(mol*cm) km/mol    a.u.
----------------------------------------------------------------------------
  6:   1296.74   0.001800    9.10  0.000433  (-0.000065 -0.000000 -0.020815)
  7:   1398.36   0.000869    4.39  0.000194  (-0.000000  0.013926 -0.000000)
  8:   1400.78   0.000876    4.43  0.000195  ( 0.013972  0.000000  0.000058)
  9:   3052.12   0.000016    0.08  0.000002  (-0.000084 -0.000000  0.001285)
 10:   3103.88   0.006723   33.98  0.000676  (-0.025999  0.000016 -0.000052)
 11:   3103.98   0.006883   34.79  0.000692  ( 0.000016  0.026306  0.000000)

--------------------------
THERMOCHEMISTRY AT 298.15K
--------------------------

Temperature         ... 298.15 K
Pressure            ... 1.00 atm
Total Mass          ... 15.03 AMU

Throughout the following assumptions are being made:
  (1) The electronic state is orbitally nondegenerate
      but the spin degeneracy is treated
  (2) There are no thermally accessible electronically excited states
  (3) Hindered rotations indicated by low frequency modes are not
      treated as such but are treated as vibrations and this may
      cause some error
  (4) All equations used are the standard statistical mechanics
      equations for an ideal gas
  (5) All vibrations are strictly harmonic

freq.    1296.74  E(vib)   ...       0.01
freq.    1398.36  E(vib)   ...       0.00
freq.    1400.78  E(vib)   ...       0.00
freq.    3052.12  E(vib)   ...       0.00
freq.    3103.88  E(vib)   ...       0.00
freq.    3103.98  E(vib)   ...       0.00

------------
INNER ENERGY
------------

The inner energy is: U= E(el) + E(ZPE) + E(vib) + E(rot) + E(trans)
    E(el)   - is the total energy from the electronic structure calculation
              = E(kin-el) + E(nuc-el) + E(el-el) + E(nuc-nuc)
    E(ZPE)  - the the zero temperature vibrational energy from the frequency calculation
    E(vib)  - the the finite temperature correction to E(ZPE) due to population
              of excited vibrational states
    E(rot)  - is the rotational thermal energy
    E(trans)- is the translational thermal energy

Summary of contributions to the inner energy U:
Electronic energy                ...    -39.81240435 Eh
Zero point energy                ...      0.03042690 Eh      19.09 kcal/mol
Thermal vibrational correction   ...      0.00002625 Eh       0.02 kcal/mol
Thermal rotational correction    ...      0.00141627 Eh       0.89 kcal/mol
Thermal translational correction ...      0.00141627 Eh       0.89 kcal/mol
-----------------------------------------------------------------------
Total thermal energy                    -39.77911865 Eh

Summary of corrections to the electronic energy:
(perhaps to be used in another calculation)
Total thermal correction                  0.00285880 Eh       1.79 kcal/mol
Non-thermal (ZPE) correction              0.03042690 Eh      19.09 kcal/mol
-----------------------------------------------------------------------
Total correction                          0.03328570 Eh      20.89 kcal/mol

--------
ENTHALPY
--------

The enthalpy is H = U + kB*T
                kB is Boltzmann's constant
Total free energy                 ...    -39.77911865 Eh
Thermal Enthalpy correction       ...      0.00094421 Eh       0.59 kcal/mol
-----------------------------------------------------------------------
Total Enthalpy                    ...    -39.77817444 Eh

Note: Rotational entropy computed according to Herzberg
Infrared and Raman Spectra, Chapter V,1, Van Nostrand Reinhold, 1945
Point Group:  C3v, Symmetry Number:   3
Rotational constants in cm-1:     8.285876     8.285504     5.802001

Vibrational entropy computed according to the QRRHO of S. Grimme
Chem.Eur.J. 2012 18 9955

-------
ENTROPY
-------

The entropy contributions are T*S = T*(S(el)+S(vib)+S(rot)+S(trans))
     S(el)   - electronic entropy
     S(vib)  - vibrational entropy
     S(rot)  - rotational entropy
     S(trans)- translational entropy
The entropies will be listed as multiplied by the temperature to get
units of energy

Electronic entropy                ...      0.00065446 Eh      0.41 kcal/mol
Vibrational entropy               ...      0.00003028 Eh      0.02 kcal/mol
Rotational entropy                ...      0.00564699 Eh      3.54 kcal/mol
Translational entropy             ...      0.01618771 Eh     10.16 kcal/mol
-----------------------------------------------------------------------
Final entropy term                ...      0.02251943 Eh     14.13 kcal/mol

In case the symmetry of your molecule has not been determined correctly
or in case you have a reason to use a different symmetry number we print
out the resulting rotational entropy values for sn=1,12 :
 --------------------------------------------------------
|  sn= 1 | S(rot)=       0.00668428 Eh      4.19 kcal/mol|
|  sn= 2 | S(rot)=       0.00602982 Eh      3.78 kcal/mol|
|  sn= 3 | S(rot)=       0.00564699 Eh      3.54 kcal/mol|
|  sn= 4 | S(rot)=       0.00537537 Eh      3.37 kcal/mol|
|  sn= 5 | S(rot)=       0.00516468 Eh      3.24 kcal/mol|
|  sn= 6 | S(rot)=       0.00499254 Eh      3.13 kcal/mol|
|  sn= 7 | S(rot)=       0.00484699 Eh      3.04 kcal/mol|
|  sn= 8 | S(rot)=       0.00472091 Eh      2.96 kcal/mol|
|  sn= 9 | S(rot)=       0.00460970 Eh      2.89 kcal/mol|
|  sn=10 | S(rot)=       0.00451022 Eh      2.83 kcal/mol|
|  sn=11 | S(rot)=       0.00442023 Eh      2.77 kcal/mol|
|  sn=12 | S(rot)=       0.00433808 Eh      2.72 kcal/mol|
 --------------------------------------------------------

-------------------
GIBBS FREE ENERGY
-------------------

The Gibbs free energy is G = H - T*S

Total enthalpy                    ...    -39.77817444 Eh
Total entropy correction          ...     -0.02251943 Eh    -14.13 kcal/mol
-----------------------------------------------------------------------
Final Gibbs free energy         ...    -39.80069387 Eh

For completeness - the Gibbs free energy minus the electronic energy
G-E(el)                           ...      0.01171048 Eh      7.35 kcal/mol

                             ****ORCA TERMINATED NORMALLY****
TOTAL RUN TIME: 0 days 0 hours 1 minutes 12 seconds 432 msec
