                         Program Version 5.0.4 -  RELEASE  -
|  1> ! UKS TightSCF wB97x-D3 def2-TZVPD xyzfile opt freq
|  2>
|  3> # CH3 radical 114.0 degrees fixed
|  4>
|  5> %maxcore 1000
|  6> %pal
|  7> nprocs 18
|  8> end
|  9>
| 10> %geom Constraints
| 11>         { A * 0 * C }
| 12>     end
| 13> end
| 14> * xyz 0 2
| 15> C 0.00 0.00 0.00
| 16> H 1.0458864248 0.0000000000 -0.2692983222
| 17> H -0.5229432124 0.9057642134 -0.2692983222
| 18> H -0.5229432124 -0.9057642134 -0.2692983222
| 19> **                         ****END OF INPUT****
 Total Charge           Charge          ....    0
 Multiplicity           Mult            ....    2
 Number of Electrons    NEL             ....    9
Dispersion correction           -0.000014309
FINAL SINGLE POINT ENERGY       -39.834532300486
Dispersion correction            ... done
Dispersion correction           -0.000014866
FINAL SINGLE POINT ENERGY       -39.834586516952
Dispersion correction            ... done
                    ***********************HURRAY********************

CARTESIAN COORDINATES (ANGSTROEM)
---------------------------------
  C     -0.000006   -0.000000    0.000983
  H      1.050989   -0.000000   -0.269627
  H     -0.525491    0.910168   -0.269626
  H     -0.525491   -0.910168   -0.269626

 Multiplicity           Mult            ....    2
 Number of Electrons    NEL             ....    9
 Basis Dimension        Dim             ....   64

ORBITAL ENERGIES
----------------
                 SPIN UP ORBITALS
  NO   OCC          E(Eh)            E(eV)
   0   1.0000     -10.290051      -280.0065
   1   1.0000      -0.805319       -21.9138
   2   1.0000      -0.513106       -13.9623
   3   1.0000      -0.513079       -13.9616
   4   1.0000      -0.345338        -9.3971
   5   0.0000       0.076104         2.0709
   6   0.0000       0.161156         4.3853
   7   0.0000       0.161167         4.3856
   8   0.0000       0.199160         5.4194
   9   0.0000       0.199169         5.4197

                 SPIN DOWN ORBITALS
  NO   OCC          E(Eh)            E(eV)
   0   1.0000     -10.279527      -279.7202
   1   1.0000      -0.763124       -20.7657
   2   1.0000      -0.499645       -13.5960
   3   1.0000      -0.499598       -13.5948
   4   0.0000      -0.002254        -0.0613
   5   0.0000       0.085791         2.3345
   6   0.0000       0.165550         4.5048
   7   0.0000       0.165562         4.5052
   8   0.0000       0.200965         5.4685

MULLIKEN ATOMIC CHARGES AND SPIN POPULATIONS
--------------------------------------------
   0 C :   -0.716583    0.896206
   1 H :    0.238696    0.034568
   2 H :    0.238939    0.034613
   3 H :    0.238948    0.034613
Sum of atomic charges         :   -0.0000000

LOEWDIN ATOMIC CHARGES AND SPIN POPULATIONS
-------------------------------------------
   0 C :    0.055491    0.835549
   1 H :   -0.018493    0.054833
   2 H :   -0.018499    0.054809
   3 H :   -0.018499    0.054809

  Mayer bond orders larger than 0.100000
B(  0-C ,  1-H ) :   0.9723 B(  0-C ,  2-H ) :   0.9720 B(  0-C ,  3-H ) :   0.9720

Dispersion correction           -0.000014875
FINAL SINGLE POINT ENERGY       -39.834586534600

DIPOLE MOMENT
-------------
                                X             Y             Z
Electronic contribution:      0.00015       0.00000       0.40713
Nuclear contribution   :      0.00002       0.00000      -0.60845
                        -----------------------------------------
Total Dipole Moment    :      0.00017       0.00000      -0.20132
                        -----------------------------------------
Magnitude (a.u.)       :      0.20132
Magnitude (Debye)      :      0.51171

Dispersion correction in the Hessian             ... done   (      0.1 sec)

VIBRATIONAL FREQUENCIES
-----------------------

Scaling factor for frequencies =  1.000000000  (already applied!)

   0:         0.00 cm**-1
   1:         0.00 cm**-1
   2:         0.00 cm**-1
   3:         0.00 cm**-1
   4:         0.00 cm**-1
   5:         0.00 cm**-1
   6:       989.91 cm**-1
   7:      1419.07 cm**-1
   8:      1425.55 cm**-1
   9:      3098.58 cm**-1
  10:      3241.38 cm**-1
  11:      3241.90 cm**-1

IR SPECTRUM
-----------

 Mode   freq       eps      Int      T**2         TX        TY        TZ
       cm**-1   L/(mol*cm) km/mol    a.u.
----------------------------------------------------------------------------
  6:    989.91   0.006905   34.89  0.002177  (-0.000094  0.000000  0.046654)
  7:   1419.07   0.000585    2.96  0.000129  (-0.011339  0.000000  0.000281)
  8:   1425.55   0.000579    2.93  0.000127  ( 0.000000  0.011259 -0.000000)
  9:   3098.58   0.000011    0.05  0.000001  (-0.000063  0.000000  0.001032)
 10:   3241.38   0.002618   13.23  0.000252  ( 0.015877  0.000001  0.000004)
 11:   3241.90   0.002624   13.26  0.000253  ( 0.000001 -0.015894  0.000000)

--------------------------
THERMOCHEMISTRY AT 298.15K
--------------------------

Temperature         ... 298.15 K
Pressure            ... 1.00 atm
Total Mass          ... 15.03 AMU

Throughout the following assumptions are being made:
  (1) The electronic state is orbitally nondegenerate
      but the spin degeneracy is treated
  (2) There are no thermally accessible electronically excited states
  (3) Hindered rotations indicated by low frequency modes are not
      treated as such but are treated as vibrations and this may
      cause some error
  (4) All equations used are the standard statistical mechanics
      equations for an ideal gas
  (5) All vibrations are strictly harmonic

freq.     989.91  E(vib)   ...       0.02
freq.    1419.07  E(vib)   ...       0.00
freq.    1425.55  E(vib)   ...       0.00
freq.    3098.58  E(vib)   ...       0.00
freq.    3241.38  E(vib)   ...       0.00
freq.    3241.90  E(vib)   ...       0.00

------------
INNER ENERGY
------------

The inner energy is: U= E(el) + E(ZPE) + E(vib) + E(rot) + E(trans)
    E(el)   - is the total energy from the electronic structure calculation
              = E(kin-el) + E(nuc-el) + E(el-el) + E(nuc-nuc)
    E(ZPE)  - the the zero temperature vibrational energy from the frequency calculation
    E(vib)  - the the finite temperature correction to E(ZPE) due to population
              of excited vibrational states
    E(rot)  - is the rotational thermal energy
    E(trans)- is the translational thermal energy

Summary of contributions to the inner energy U:
Electronic energy                ...    -39.83458653 Eh
Zero point energy                ...      0.03056480 Eh      19.18 kcal/mol
Thermal vibrational correction   ...      0.00005188 Eh       0.03 kcal/mol
Thermal rotational correction    ...      0.00141627 Eh       0.89 kcal/mol
Thermal translational correction ...      0.00141627 Eh       0.89 kcal/mol
-----------------------------------------------------------------------
Total thermal energy                    -39.80113731 Eh

Summary of corrections to the electronic energy:
(perhaps to be used in another calculation)
Total thermal correction                  0.00288443 Eh       1.81 kcal/mol
Non-thermal (ZPE) correction              0.03056480 Eh      19.18 kcal/mol
-----------------------------------------------------------------------
Total correction                          0.03344922 Eh      20.99 kcal/mol

--------
ENTHALPY
--------

The enthalpy is H = U + kB*T
                kB is Boltzmann's constant
Total free energy                 ...    -39.80113731 Eh
Thermal Enthalpy correction       ...      0.00094421 Eh       0.59 kcal/mol
-----------------------------------------------------------------------
Total Enthalpy                    ...    -39.80019310 Eh

Note: Rotational entropy computed according to Herzberg
Infrared and Raman Spectra, Chapter V,1, Van Nostrand Reinhold, 1945
Point Group:  C3v, Symmetry Number:   3
Rotational constants in cm-1:     9.127180     9.126938     5.046928

Vibrational entropy computed according to the QRRHO of S. Grimme
Chem.Eur.J. 2012 18 9955

-------
ENTROPY
-------

The entropy contributions are T*S = T*(S(el)+S(vib)+S(rot)+S(trans))
     S(el)   - electronic entropy
     S(vib)  - vibrational entropy
     S(rot)  - rotational entropy
     S(trans)- translational entropy
The entropies will be listed as multiplied by the temperature to get
units of energy

Electronic entropy                ...      0.00065446 Eh      0.41 kcal/mol
Vibrational entropy               ...      0.00006187 Eh      0.04 kcal/mol
Rotational entropy                ...      0.00562150 Eh      3.53 kcal/mol
Translational entropy             ...      0.01618771 Eh     10.16 kcal/mol
-----------------------------------------------------------------------
Final entropy term                ...      0.02252553 Eh     14.13 kcal/mol

In case the symmetry of your molecule has not been determined correctly
or in case you have a reason to use a different symmetry number we print
out the resulting rotational entropy values for sn=1,12 :
 --------------------------------------------------------
|  sn= 1 | S(rot)=       0.00665879 Eh      4.18 kcal/mol|
|  sn= 2 | S(rot)=       0.00600433 Eh      3.77 kcal/mol|
|  sn= 3 | S(rot)=       0.00562150 Eh      3.53 kcal/mol|
|  sn= 4 | S(rot)=       0.00534987 Eh      3.36 kcal/mol|
|  sn= 5 | S(rot)=       0.00513919 Eh      3.22 kcal/mol|
|  sn= 6 | S(rot)=       0.00496704 Eh      3.12 kcal/mol|
|  sn= 7 | S(rot)=       0.00482149 Eh      3.03 kcal/mol|
|  sn= 8 | S(rot)=       0.00469542 Eh      2.95 kcal/mol|
|  sn= 9 | S(rot)=       0.00458421 Eh      2.88 kcal/mol|
|  sn=10 | S(rot)=       0.00448473 Eh      2.81 kcal/mol|
|  sn=11 | S(rot)=       0.00439474 Eh      2.76 kcal/mol|
|  sn=12 | S(rot)=       0.00431258 Eh      2.71 kcal/mol|
 --------------------------------------------------------

-------------------
GIBBS FREE ENERGY
-------------------

The Gibbs free energy is G = H - T*S

Total enthalpy                    ...    -39.80019310 Eh
Total entropy correction          ...     -0.02252553 Eh    -14.13 kcal/mol
-----------------------------------------------------------------------
Final Gibbs free energy         ...    -39.82271863 Eh

For completeness - the Gibbs free energy minus the electronic energy
G-E(el)                           ...      0.01186790 Eh      7.45 kcal/mol

                             ****ORCA TERMINATED NORMALLY****
TOTAL RUN TIME: 0 days 0 hours 0 minutes 53 seconds 203 msec
