                         Program Version 5.0.4 -  RELEASE  -
|  1> ! UKS TightSCF wB97x-D3 def2-TZVPD xyzfile opt freq
|  2>
|  3> # CH3 radical 99.0 degrees fixed
|  4>
|  5> %maxcore 1000
|  6> %pal
|  7> nprocs 18
|  8> end
|  9>
| 10> %geom Constraints
| 11>         { A * 0 * C }
| 12>     end
| 13> end
| 14> * xyz 0 2
| 15> C 0.00 0.00 0.00
| 16> H 0.9482844721 0.0000000000 -0.5168718990
| 17> H -0.4741422360 0.8212384428 -0.5168718990
| 18> H -0.4741422360 -0.8212384428 -0.5168718990
| 19> **                         ****END OF INPUT****
 Total Charge           Charge          ....    0
 Multiplicity           Mult            ....    2
 Number of Electrons    NEL             ....    9
Dispersion correction           -0.000006627
FINAL SINGLE POINT ENERGY       -39.805429058807
Dispersion correction            ... done
Dispersion correction           -0.000007536
FINAL SINGLE POINT ENERGY       -39.806061570601
Dispersion correction            ... done
Dispersion correction           -0.000007586
FINAL SINGLE POINT ENERGY       -39.806063287381
Dispersion correction            ... done
                    ***********************HURRAY********************

CARTESIAN COORDINATES (ANGSTROEM)
---------------------------------
  C      0.000010    0.000000    0.006606
  H      0.964432    0.000000   -0.519070
  H     -0.482221    0.835243   -0.519076
  H     -0.482221   -0.835243   -0.519076

 Multiplicity           Mult            ....    2
 Number of Electrons    NEL             ....    9
 Basis Dimension        Dim             ....   64

ORBITAL ENERGIES
----------------
                 SPIN UP ORBITALS
  NO   OCC          E(Eh)            E(eV)
   0   1.0000     -10.301556      -280.3196
   1   1.0000      -0.815971       -22.2037
   2   1.0000      -0.489734       -13.3263
   3   1.0000      -0.489700       -13.3254
   4   1.0000      -0.389849       -10.6083
   5   0.0000       0.074342         2.0229
   6   0.0000       0.160254         4.3607
   7   0.0000       0.160260         4.3609
   8   0.0000       0.174407         4.7459
   9   0.0000       0.193438         5.2637

                 SPIN DOWN ORBITALS
  NO   OCC          E(Eh)            E(eV)
   0   1.0000     -10.289834      -280.0006
   1   1.0000      -0.780333       -21.2340
   2   1.0000      -0.474160       -12.9026
   3   1.0000      -0.474149       -12.9022
   4   0.0000      -0.036790        -1.0011
   5   0.0000       0.082456         2.2438
   6   0.0000       0.165751         4.5103
   7   0.0000       0.165757         4.5105
   8   0.0000       0.199858         5.4384

MULLIKEN ATOMIC CHARGES AND SPIN POPULATIONS
--------------------------------------------
   0 C :   -0.664288    0.895965
   1 H :    0.221130    0.034673
   2 H :    0.221577    0.034680
   3 H :    0.221580    0.034682
Sum of atomic charges         :   -0.0000000

LOEWDIN ATOMIC CHARGES AND SPIN POPULATIONS
-------------------------------------------
   0 C :    0.041677    0.840557
   1 H :   -0.013935    0.053152
   2 H :   -0.013871    0.053146
   3 H :   -0.013871    0.053146

  Mayer bond orders larger than 0.100000
B(  0-C ,  1-H ) :   1.0176 B(  0-C ,  2-H ) :   1.0171 B(  0-C ,  3-H ) :   1.0171

Dispersion correction           -0.000007589
FINAL SINGLE POINT ENERGY       -39.806063293642

DIPOLE MOMENT
-------------
                                X             Y             Z
Electronic contribution:      0.00003      -0.00000       0.87603
Nuclear contribution   :     -0.00003      -0.00000      -1.18196
                        -----------------------------------------
Total Dipole Moment    :     -0.00000      -0.00000      -0.30593
                        -----------------------------------------
Magnitude (a.u.)       :      0.30593
Magnitude (Debye)      :      0.77762

Dispersion correction in the Hessian             ... done   (      0.1 sec)

VIBRATIONAL FREQUENCIES
-----------------------

Scaling factor for frequencies =  1.000000000  (already applied!)

   0:         0.00 cm**-1
   1:         0.00 cm**-1
   2:         0.00 cm**-1
   3:         0.00 cm**-1
   4:         0.00 cm**-1
   5:         0.00 cm**-1
   6:      1333.15 cm**-1
   7:      1390.12 cm**-1
   8:      1391.84 cm**-1
   9:      3044.60 cm**-1
  10:      3076.44 cm**-1
  11:      3076.68 cm**-1

IR SPECTRUM
-----------

 Mode   freq       eps      Int      T**2         TX        TY        TZ
       cm**-1   L/(mol*cm) km/mol    a.u.
----------------------------------------------------------------------------
  6:   1333.15   0.001506    7.61  0.000352  ( 0.000322  0.000000 -0.018772)
  7:   1390.12   0.000978    4.94  0.000220  (-0.000001  0.014820  0.000000)
  8:   1391.84   0.001003    5.07  0.000225  (-0.014990 -0.000001 -0.000394)
  9:   3044.60   0.000015    0.08  0.000002  ( 0.000221  0.000000 -0.001239)
 10:   3076.44   0.007550   38.16  0.000766  (-0.027675  0.000001 -0.000055)
 11:   3076.68   0.007719   39.01  0.000783  ( 0.000001  0.027981  0.000000)

--------------------------
THERMOCHEMISTRY AT 298.15K
--------------------------

Temperature         ... 298.15 K
Pressure            ... 1.00 atm
Total Mass          ... 15.03 AMU

Throughout the following assumptions are being made:
  (1) The electronic state is orbitally nondegenerate
      but the spin degeneracy is treated
  (2) There are no thermally accessible electronically excited states
  (3) Hindered rotations indicated by low frequency modes are not
      treated as such but are treated as vibrations and this may
      cause some error
  (4) All equations used are the standard statistical mechanics
      equations for an ideal gas
  (5) All vibrations are strictly harmonic

freq.    1333.15  E(vib)   ...       0.01
freq.    1390.12  E(vib)   ...       0.00
freq.    1391.84  E(vib)   ...       0.00
freq.    3044.60  E(vib)   ...       0.00
freq.    3076.44  E(vib)   ...       0.00
freq.    3076.68  E(vib)   ...       0.00

------------
INNER ENERGY
------------

The inner energy is: U= E(el) + E(ZPE) + E(vib) + E(rot) + E(trans)
    E(el)   - is the total energy from the electronic structure calculation
              = E(kin-el) + E(nuc-el) + E(el-el) + E(nuc-nuc)
    E(ZPE)  - the the zero temperature vibrational energy from the frequency calculation
    E(vib)  - the the finite temperature correction to E(ZPE) due to population
              of excited vibrational states
    E(rot)  - is the rotational thermal energy
    E(trans)- is the translational thermal energy

Summary of contributions to the inner energy U:
Electronic energy                ...    -39.80606329 Eh
Zero point energy                ...      0.03032886 Eh      19.03 kcal/mol
Thermal vibrational correction   ...      0.00002523 Eh       0.02 kcal/mol
Thermal rotational correction    ...      0.00141627 Eh       0.89 kcal/mol
Thermal translational correction ...      0.00141627 Eh       0.89 kcal/mol
-----------------------------------------------------------------------
Total thermal energy                    -39.77287666 Eh

Summary of corrections to the electronic energy:
(perhaps to be used in another calculation)
Total thermal correction                  0.00285777 Eh       1.79 kcal/mol
Non-thermal (ZPE) correction              0.03032886 Eh      19.03 kcal/mol
-----------------------------------------------------------------------
Total correction                          0.03318663 Eh      20.82 kcal/mol

--------
ENTHALPY
--------

The enthalpy is H = U + kB*T
                kB is Boltzmann's constant
Total free energy                 ...    -39.77287666 Eh
Thermal Enthalpy correction       ...      0.00094421 Eh       0.59 kcal/mol
-----------------------------------------------------------------------
Total Enthalpy                    ...    -39.77193246 Eh

Note: Rotational entropy computed according to Herzberg
Infrared and Raman Spectra, Chapter V,1, Van Nostrand Reinhold, 1945
Point Group:  C3v, Symmetry Number:   3
Rotational constants in cm-1:     8.128312     8.128087     5.993217

Vibrational entropy computed according to the QRRHO of S. Grimme
Chem.Eur.J. 2012 18 9955

-------
ENTROPY
-------

The entropy contributions are T*S = T*(S(el)+S(vib)+S(rot)+S(trans))
     S(el)   - electronic entropy
     S(vib)  - vibrational entropy
     S(rot)  - rotational entropy
     S(trans)- translational entropy
The entropies will be listed as multiplied by the temperature to get
units of energy

Electronic entropy                ...      0.00065446 Eh      0.41 kcal/mol
Vibrational entropy               ...      0.00002905 Eh      0.02 kcal/mol
Rotational entropy                ...      0.00564980 Eh      3.55 kcal/mol
Translational entropy             ...      0.01618771 Eh     10.16 kcal/mol
-----------------------------------------------------------------------
Final entropy term                ...      0.02252102 Eh     14.13 kcal/mol

In case the symmetry of your molecule has not been determined correctly
or in case you have a reason to use a different symmetry number we print
out the resulting rotational entropy values for sn=1,12 :
 --------------------------------------------------------
|  sn= 1 | S(rot)=       0.00668709 Eh      4.20 kcal/mol|
|  sn= 2 | S(rot)=       0.00603264 Eh      3.79 kcal/mol|
|  sn= 3 | S(rot)=       0.00564980 Eh      3.55 kcal/mol|
|  sn= 4 | S(rot)=       0.00537818 Eh      3.37 kcal/mol|
|  sn= 5 | S(rot)=       0.00516749 Eh      3.24 kcal/mol|
|  sn= 6 | S(rot)=       0.00499535 Eh      3.13 kcal/mol|
|  sn= 7 | S(rot)=       0.00484980 Eh      3.04 kcal/mol|
|  sn= 8 | S(rot)=       0.00472372 Eh      2.96 kcal/mol|
|  sn= 9 | S(rot)=       0.00461251 Eh      2.89 kcal/mol|
|  sn=10 | S(rot)=       0.00451304 Eh      2.83 kcal/mol|
|  sn=11 | S(rot)=       0.00442304 Eh      2.78 kcal/mol|
|  sn=12 | S(rot)=       0.00434089 Eh      2.72 kcal/mol|
 --------------------------------------------------------

-------------------
GIBBS FREE ENERGY
-------------------

The Gibbs free energy is G = H - T*S

Total enthalpy                    ...    -39.77193246 Eh
Total entropy correction          ...     -0.02252102 Eh    -14.13 kcal/mol
-----------------------------------------------------------------------
Final Gibbs free energy         ...    -39.79445347 Eh

For completeness - the Gibbs free energy minus the electronic energy
G-E(el)                           ...      0.01160982 Eh      7.29 kcal/mol

                             ****ORCA TERMINATED NORMALLY****
TOTAL RUN TIME: 0 days 0 hours 1 minutes 14 seconds 285 msec
