                         Program Version 5.0.4 -  RELEASE  -
|  1> ! UKS TightSCF wB97x-D3 def2-TZVPD xyzfile opt freq
|  2>
|  3> # CH3 radical 98.5 degrees fixed
|  4>
|  5> %maxcore 1000
|  6> %pal
|  7> nprocs 18
|  8> end
|  9>
| 10> %geom Constraints
| 11>         { A * 0 * C }
| 12>     end
| 13> end
| 14> * xyz 0 2
| 15> C 0.00 0.00 0.00
| 16> H 0.9447415510 0.0000000000 -0.5233195982
| 17> H -0.4723707755 0.8181701831 -0.5233195982
| 18> H -0.4723707755 -0.8181701831 -0.5233195982
| 19> **                         ****END OF INPUT****
 Total Charge           Charge          ....    0
 Multiplicity           Mult            ....    2
 Number of Electrons    NEL             ....    9
Dispersion correction           -0.000006437
FINAL SINGLE POINT ENERGY       -39.804053353467
Dispersion correction            ... done
Dispersion correction           -0.000007340
FINAL SINGLE POINT ENERGY       -39.804716021160
Dispersion correction            ... done
Dispersion correction           -0.000007392
FINAL SINGLE POINT ENERGY       -39.804717894608
Dispersion correction            ... done
                    ***********************HURRAY********************

CARTESIAN COORDINATES (ANGSTROEM)
---------------------------------
  C      0.000010    0.000000    0.006851
  H      0.961221    0.000000   -0.525600
  H     -0.480615    0.832460   -0.525605
  H     -0.480615   -0.832460   -0.525605

 Multiplicity           Mult            ....    2
 Number of Electrons    NEL             ....    9
 Basis Dimension        Dim             ....   64

ORBITAL ENERGIES
----------------
                 SPIN UP ORBITALS
  NO   OCC          E(Eh)            E(eV)
   0   1.0000     -10.301961      -280.3306
   1   1.0000      -0.816430       -22.2162
   2   1.0000      -0.488896       -13.3035
   3   1.0000      -0.488864       -13.3027
   4   1.0000      -0.391277       -10.6472
   5   0.0000       0.074241         2.0202
   6   0.0000       0.160201         4.3593
   7   0.0000       0.160207         4.3594
   8   0.0000       0.173502         4.7212
   9   0.0000       0.193367         5.2618

                 SPIN DOWN ORBITALS
  NO   OCC          E(Eh)            E(eV)
   0   1.0000     -10.290199      -280.0106
   1   1.0000      -0.780976       -21.2514
   2   1.0000      -0.473262       -12.8781
   3   1.0000      -0.473250       -12.8778
   4   0.0000      -0.037964        -1.0330
   5   0.0000       0.082312         2.2398
   6   0.0000       0.165736         4.5099
   7   0.0000       0.165740         4.5100
   8   0.0000       0.199893         5.4394

MULLIKEN ATOMIC CHARGES AND SPIN POPULATIONS
--------------------------------------------
   0 C :   -0.662974    0.897025
   1 H :    0.220697    0.034330
   2 H :    0.221135    0.034323
   3 H :    0.221141    0.034322
Sum of atomic charges         :   -0.0000000

LOEWDIN ATOMIC CHARGES AND SPIN POPULATIONS
-------------------------------------------
   0 C :    0.041251    0.840819
   1 H :   -0.013791    0.053065
   2 H :   -0.013730    0.053058
   3 H :   -0.013730    0.053058

  Mayer bond orders larger than 0.100000
B(  0-C ,  1-H ) :   1.0188 B(  0-C ,  2-H ) :   1.0182 B(  0-C ,  3-H ) :   1.0182

Dispersion correction           -0.000007395
FINAL SINGLE POINT ENERGY       -39.804717901276

DIPOLE MOMENT
-------------
                                X             Y             Z
Electronic contribution:      0.00004      -0.00000       0.88927
Nuclear contribution   :     -0.00003      -0.00000      -1.19719
                        -----------------------------------------
Total Dipole Moment    :      0.00001      -0.00000      -0.30792
                        -----------------------------------------
Magnitude (a.u.)       :      0.30792
Magnitude (Debye)      :      0.78267

Dispersion correction in the Hessian             ... done   (      0.1 sec)

VIBRATIONAL FREQUENCIES
-----------------------

Scaling factor for frequencies =  1.000000000  (already applied!)

   0:         0.00 cm**-1
   1:         0.00 cm**-1
   2:         0.00 cm**-1
   3:         0.00 cm**-1
   4:         0.00 cm**-1
   5:         0.00 cm**-1
   6:      1339.52 cm**-1
   7:      1388.00 cm**-1
   8:      1389.58 cm**-1
   9:      3043.18 cm**-1
  10:      3070.90 cm**-1
  11:      3071.12 cm**-1

IR SPECTRUM
-----------

 Mode   freq       eps      Int      T**2         TX        TY        TZ
       cm**-1   L/(mol*cm) km/mol    a.u.
----------------------------------------------------------------------------
  6:   1339.52   0.001458    7.37  0.000340  ( 0.000471  0.000000 -0.018422)
  7:   1388.00   0.001004    5.07  0.000226  (-0.000001  0.015023  0.000000)
  8:   1389.58   0.001029    5.20  0.000231  (-0.015191 -0.000001 -0.000527)
  9:   3043.18   0.000016    0.08  0.000002  ( 0.000286 -0.000000 -0.001241)
 10:   3070.90   0.007711   38.97  0.000784  (-0.027993 -0.000010 -0.000065)
 11:   3071.12   0.007878   39.81  0.000800  (-0.000010  0.028292  0.000000)

--------------------------
THERMOCHEMISTRY AT 298.15K
--------------------------

Temperature         ... 298.15 K
Pressure            ... 1.00 atm
Total Mass          ... 15.03 AMU

Throughout the following assumptions are being made:
  (1) The electronic state is orbitally nondegenerate
      but the spin degeneracy is treated
  (2) There are no thermally accessible electronically excited states
  (3) Hindered rotations indicated by low frequency modes are not
      treated as such but are treated as vibrations and this may
      cause some error
  (4) All equations used are the standard statistical mechanics
      equations for an ideal gas
  (5) All vibrations are strictly harmonic

freq.    1339.52  E(vib)   ...       0.01
freq.    1388.00  E(vib)   ...       0.00
freq.    1389.58  E(vib)   ...       0.00
freq.    3043.18  E(vib)   ...       0.00
freq.    3070.90  E(vib)   ...       0.00
freq.    3071.12  E(vib)   ...       0.00

------------
INNER ENERGY
------------

The inner energy is: U= E(el) + E(ZPE) + E(vib) + E(rot) + E(trans)
    E(el)   - is the total energy from the electronic structure calculation
              = E(kin-el) + E(nuc-el) + E(el-el) + E(nuc-nuc)
    E(ZPE)  - the the zero temperature vibrational energy from the frequency calculation
    E(vib)  - the the finite temperature correction to E(ZPE) due to population
              of excited vibrational states
    E(rot)  - is the rotational thermal energy
    E(trans)- is the translational thermal energy

Summary of contributions to the inner energy U:
Electronic energy                ...    -39.80471790 Eh
Zero point energy                ...      0.03030488 Eh      19.02 kcal/mol
Thermal vibrational correction   ...      0.00002511 Eh       0.02 kcal/mol
Thermal rotational correction    ...      0.00141627 Eh       0.89 kcal/mol
Thermal translational correction ...      0.00141627 Eh       0.89 kcal/mol
-----------------------------------------------------------------------
Total thermal energy                    -39.77155537 Eh

Summary of corrections to the electronic energy:
(perhaps to be used in another calculation)
Total thermal correction                  0.00285766 Eh       1.79 kcal/mol
Non-thermal (ZPE) correction              0.03030488 Eh      19.02 kcal/mol
-----------------------------------------------------------------------
Total correction                          0.03316254 Eh      20.81 kcal/mol

--------
ENTHALPY
--------

The enthalpy is H = U + kB*T
                kB is Boltzmann's constant
Total free energy                 ...    -39.77155537 Eh
Thermal Enthalpy correction       ...      0.00094421 Eh       0.59 kcal/mol
-----------------------------------------------------------------------
Total Enthalpy                    ...    -39.77061116 Eh

Note: Rotational entropy computed according to Herzberg
Infrared and Raman Spectra, Chapter V,1, Van Nostrand Reinhold, 1945
Point Group:  C3v, Symmetry Number:   3
Rotational constants in cm-1:     8.097204     8.096997     6.033334

Vibrational entropy computed according to the QRRHO of S. Grimme
Chem.Eur.J. 2012 18 9955

-------
ENTROPY
-------

The entropy contributions are T*S = T*(S(el)+S(vib)+S(rot)+S(trans))
     S(el)   - electronic entropy
     S(vib)  - vibrational entropy
     S(rot)  - rotational entropy
     S(trans)- translational entropy
The entropies will be listed as multiplied by the temperature to get
units of energy

Electronic entropy                ...      0.00065446 Eh      0.41 kcal/mol
Vibrational entropy               ...      0.00002892 Eh      0.02 kcal/mol
Rotational entropy                ...      0.00565027 Eh      3.55 kcal/mol
Translational entropy             ...      0.01618771 Eh     10.16 kcal/mol
-----------------------------------------------------------------------
Final entropy term                ...      0.02252135 Eh     14.13 kcal/mol

In case the symmetry of your molecule has not been determined correctly
or in case you have a reason to use a different symmetry number we print
out the resulting rotational entropy values for sn=1,12 :
 --------------------------------------------------------
|  sn= 1 | S(rot)=       0.00668756 Eh      4.20 kcal/mol|
|  sn= 2 | S(rot)=       0.00603311 Eh      3.79 kcal/mol|
|  sn= 3 | S(rot)=       0.00565027 Eh      3.55 kcal/mol|
|  sn= 4 | S(rot)=       0.00537865 Eh      3.38 kcal/mol|
|  sn= 5 | S(rot)=       0.00516796 Eh      3.24 kcal/mol|
|  sn= 6 | S(rot)=       0.00499582 Eh      3.13 kcal/mol|
|  sn= 7 | S(rot)=       0.00485027 Eh      3.04 kcal/mol|
|  sn= 8 | S(rot)=       0.00472419 Eh      2.96 kcal/mol|
|  sn= 9 | S(rot)=       0.00461298 Eh      2.89 kcal/mol|
|  sn=10 | S(rot)=       0.00451350 Eh      2.83 kcal/mol|
|  sn=11 | S(rot)=       0.00442351 Eh      2.78 kcal/mol|
|  sn=12 | S(rot)=       0.00434136 Eh      2.72 kcal/mol|
 --------------------------------------------------------

-------------------
GIBBS FREE ENERGY
-------------------

The Gibbs free energy is G = H - T*S

Total enthalpy                    ...    -39.77061116 Eh
Total entropy correction          ...     -0.02252135 Eh    -14.13 kcal/mol
-----------------------------------------------------------------------
Final Gibbs free energy         ...    -39.79313251 Eh

For completeness - the Gibbs free energy minus the electronic energy
G-E(el)                           ...      0.01158539 Eh      7.27 kcal/mol

                             ****ORCA TERMINATED NORMALLY****
TOTAL RUN TIME: 0 days 0 hours 1 minutes 48 seconds 301 msec
