                         Program Version 5.0.4 -  RELEASE  -
|  1> ! UKS TightSCF wB97x-D3 def2-TZVPD xyzfile opt freq
|  2>
|  3> # CH3 radical 95.5 degrees fixed
|  4>
|  5> %maxcore 1000
|  6> %pal
|  7> nprocs 18
|  8> end
|  9>
| 10> %geom Constraints
| 11>         { A * 0 * C }
| 12>     end
| 13> end
| 14> * xyz 0 2
| 15> C 0.00 0.00 0.00
| 16> H 0.9231086920 0.0000000000 -0.5605982009
| 17> H -0.4615543460 0.7994355777 -0.5605982009
| 18> H -0.4615543460 -0.7994355777 -0.5605982009
| 19> **                         ****END OF INPUT****
 Total Charge           Charge          ....    0
 Multiplicity           Mult            ....    2
 Number of Electrons    NEL             ....    9
Dispersion correction           -0.000005374
FINAL SINGLE POINT ENERGY       -39.795235194286
Dispersion correction            ... done
Dispersion correction           -0.000006240
FINAL SINGLE POINT ENERGY       -39.796096793149
Dispersion correction            ... done
Dispersion correction           -0.000006296
FINAL SINGLE POINT ENERGY       -39.796099845828
Dispersion correction            ... done
                    ***********************HURRAY********************

CARTESIAN COORDINATES (ANGSTROEM)
---------------------------------
  C      0.000010    0.000000    0.008407
  H      0.941554    0.000000   -0.563396
  H     -0.470782    0.815429   -0.563403
  H     -0.470782   -0.815429   -0.563403

 Multiplicity           Mult            ....    2
 Number of Electrons    NEL             ....    9
 Basis Dimension        Dim             ....   64

ORBITAL ENERGIES
----------------
                 SPIN UP ORBITALS
  NO   OCC          E(Eh)            E(eV)
   0   1.0000     -10.304457      -280.3985
   1   1.0000      -0.819358       -22.2959
   2   1.0000      -0.483804       -13.1650
   3   1.0000      -0.483787       -13.1645
   4   1.0000      -0.399783       -10.8787
   5   0.0000       0.073567         2.0019
   6   0.0000       0.159842         4.3495
   7   0.0000       0.159848         4.3497
   8   0.0000       0.168488         4.5848
   9   0.0000       0.193025         5.2525

                 SPIN DOWN ORBITALS
  NO   OCC          E(Eh)            E(eV)
   0   1.0000     -10.292449      -280.0718
   1   1.0000      -0.784970       -21.3601
   2   1.0000      -0.467808       -12.7297
   3   1.0000      -0.467804       -12.7296
   4   0.0000      -0.045008        -1.2247
   5   0.0000       0.081404         2.2151
   6   0.0000       0.165616         4.5066
   7   0.0000       0.165617         4.5067
   8   0.0000       0.200110         5.4453

MULLIKEN ATOMIC CHARGES AND SPIN POPULATIONS
--------------------------------------------
   0 C :   -0.655542    0.903490
   1 H :    0.218231    0.032222
   2 H :    0.218653    0.032144
   3 H :    0.218658    0.032144
Sum of atomic charges         :    0.0000000

LOEWDIN ATOMIC CHARGES AND SPIN POPULATIONS
-------------------------------------------
   0 C :    0.038780    0.842514
   1 H :   -0.012958    0.052501
   2 H :   -0.012911    0.052492
   3 H :   -0.012911    0.052492

  Mayer bond orders larger than 0.100000
B(  0-C ,  1-H ) :   1.0246 B(  0-C ,  2-H ) :   1.0240 B(  0-C ,  3-H ) :   1.0240

Dispersion correction           -0.000006299
FINAL SINGLE POINT ENERGY       -39.796099860390

DIPOLE MOMENT
-------------
                                X             Y             Z
Electronic contribution:      0.00017      -0.00000       0.96663
Nuclear contribution   :     -0.00003      -0.00000      -1.28568
                        -----------------------------------------
Total Dipole Moment    :      0.00014      -0.00000      -0.31905
                        -----------------------------------------
Magnitude (a.u.)       :      0.31905
Magnitude (Debye)      :      0.81096

Dispersion correction in the Hessian             ... done   (      0.1 sec)

VIBRATIONAL FREQUENCIES
-----------------------

Scaling factor for frequencies =  1.000000000  (already applied!)

   0:         0.00 cm**-1
   1:         0.00 cm**-1
   2:         0.00 cm**-1
   3:         0.00 cm**-1
   4:         0.00 cm**-1
   5:         0.00 cm**-1
   6:      1370.53 cm**-1
   7:      1371.05 cm**-1
   8:      1373.80 cm**-1
   9:      3034.36 cm**-1
  10:      3037.32 cm**-1
  11:      3037.44 cm**-1

IR SPECTRUM
-----------

 Mode   freq       eps      Int      T**2         TX        TY        TZ
       cm**-1   L/(mol*cm) km/mol    a.u.
----------------------------------------------------------------------------
  6:   1370.53   0.001235    6.24  0.000281  (-0.013017 -0.000004  0.010567)
  7:   1371.05   0.001191    6.02  0.000271  (-0.000004  0.016462  0.000002)
  8:   1373.80   0.001216    6.15  0.000276  ( 0.010420  0.000001  0.012952)
  9:   3034.36   0.000030    0.15  0.000003  ( 0.001309 -0.000001 -0.001185)
 10:   3037.32   0.008694   43.94  0.000893  (-0.029888 -0.000020 -0.000072)
 11:   3037.44   0.008878   44.86  0.000912  ( 0.000020 -0.030201  0.000000)

--------------------------
THERMOCHEMISTRY AT 298.15K
--------------------------

Temperature         ... 298.15 K
Pressure            ... 1.00 atm
Total Mass          ... 15.03 AMU

Throughout the following assumptions are being made:
  (1) The electronic state is orbitally nondegenerate
      but the spin degeneracy is treated
  (2) There are no thermally accessible electronically excited states
  (3) Hindered rotations indicated by low frequency modes are not
      treated as such but are treated as vibrations and this may
      cause some error
  (4) All equations used are the standard statistical mechanics
      equations for an ideal gas
  (5) All vibrations are strictly harmonic

freq.    1370.53  E(vib)   ...       0.01
freq.    1371.05  E(vib)   ...       0.01
freq.    1373.80  E(vib)   ...       0.01
freq.    3034.36  E(vib)   ...       0.00
freq.    3037.32  E(vib)   ...       0.00
freq.    3037.44  E(vib)   ...       0.00

------------
INNER ENERGY
------------

The inner energy is: U= E(el) + E(ZPE) + E(vib) + E(rot) + E(trans)
    E(el)   - is the total energy from the electronic structure calculation
              = E(kin-el) + E(nuc-el) + E(el-el) + E(nuc-nuc)
    E(ZPE)  - the the zero temperature vibrational energy from the frequency calculation
    E(vib)  - the the finite temperature correction to E(ZPE) due to population
              of excited vibrational states
    E(rot)  - is the rotational thermal energy
    E(trans)- is the translational thermal energy

Summary of contributions to the inner energy U:
Electronic energy                ...    -39.79609986 Eh
Zero point energy                ...      0.03012764 Eh      18.91 kcal/mol
Thermal vibrational correction   ...      0.00002506 Eh       0.02 kcal/mol
Thermal rotational correction    ...      0.00141627 Eh       0.89 kcal/mol
Thermal translational correction ...      0.00141627 Eh       0.89 kcal/mol
-----------------------------------------------------------------------
Total thermal energy                    -39.76311462 Eh

Summary of corrections to the electronic energy:
(perhaps to be used in another calculation)
Total thermal correction                  0.00285761 Eh       1.79 kcal/mol
Non-thermal (ZPE) correction              0.03012764 Eh      18.91 kcal/mol
-----------------------------------------------------------------------
Total correction                          0.03298524 Eh      20.70 kcal/mol

--------
ENTHALPY
--------

The enthalpy is H = U + kB*T
                kB is Boltzmann's constant
Total free energy                 ...    -39.76311462 Eh
Thermal Enthalpy correction       ...      0.00094421 Eh       0.59 kcal/mol
-----------------------------------------------------------------------
Total Enthalpy                    ...    -39.76217041 Eh

Note: Rotational entropy computed according to Herzberg
Infrared and Raman Spectra, Chapter V,1, Van Nostrand Reinhold, 1945
Point Group:  C3v, Symmetry Number:   3
Rotational constants in cm-1:     7.913246     7.913046     6.288004

Vibrational entropy computed according to the QRRHO of S. Grimme
Chem.Eur.J. 2012 18 9955

-------
ENTROPY
-------

The entropy contributions are T*S = T*(S(el)+S(vib)+S(rot)+S(trans))
     S(el)   - electronic entropy
     S(vib)  - vibrational entropy
     S(rot)  - rotational entropy
     S(trans)- translational entropy
The entropies will be listed as multiplied by the temperature to get
units of energy

Electronic entropy                ...      0.00065446 Eh      0.41 kcal/mol
Vibrational entropy               ...      0.00002885 Eh      0.02 kcal/mol
Rotational entropy                ...      0.00565245 Eh      3.55 kcal/mol
Translational entropy             ...      0.01618771 Eh     10.16 kcal/mol
-----------------------------------------------------------------------
Final entropy term                ...      0.02252347 Eh     14.13 kcal/mol

In case the symmetry of your molecule has not been determined correctly
or in case you have a reason to use a different symmetry number we print
out the resulting rotational entropy values for sn=1,12 :
 --------------------------------------------------------
|  sn= 1 | S(rot)=       0.00668974 Eh      4.20 kcal/mol|
|  sn= 2 | S(rot)=       0.00603529 Eh      3.79 kcal/mol|
|  sn= 3 | S(rot)=       0.00565245 Eh      3.55 kcal/mol|
|  sn= 4 | S(rot)=       0.00538083 Eh      3.38 kcal/mol|
|  sn= 5 | S(rot)=       0.00517014 Eh      3.24 kcal/mol|
|  sn= 6 | S(rot)=       0.00499800 Eh      3.14 kcal/mol|
|  sn= 7 | S(rot)=       0.00485245 Eh      3.04 kcal/mol|
|  sn= 8 | S(rot)=       0.00472637 Eh      2.97 kcal/mol|
|  sn= 9 | S(rot)=       0.00461516 Eh      2.90 kcal/mol|
|  sn=10 | S(rot)=       0.00451568 Eh      2.83 kcal/mol|
|  sn=11 | S(rot)=       0.00442569 Eh      2.78 kcal/mol|
|  sn=12 | S(rot)=       0.00434354 Eh      2.73 kcal/mol|
 --------------------------------------------------------

-------------------
GIBBS FREE ENERGY
-------------------

The Gibbs free energy is G = H - T*S

Total enthalpy                    ...    -39.76217041 Eh
Total entropy correction          ...     -0.02252347 Eh    -14.13 kcal/mol
-----------------------------------------------------------------------
Final Gibbs free energy         ...    -39.78469388 Eh

For completeness - the Gibbs free energy minus the electronic energy
G-E(el)                           ...      0.01140598 Eh      7.16 kcal/mol

                             ****ORCA TERMINATED NORMALLY****
TOTAL RUN TIME: 0 days 0 hours 1 minutes 15 seconds 115 msec
