                         Program Version 5.0.4 -  RELEASE  -
|  1> ! UKS TightSCF wB97x-D3 def2-TZVPD xyzfile opt freq
|  2>
|  3> # CH3 radical 100.5 degrees fixed
|  4>
|  5> %maxcore 1000
|  6> %pal
|  7> nprocs 18
|  8> end
|  9>
| 10> %geom Constraints
| 11>         { A * 0 * C }
| 12>     end
| 13> end
| 14> * xyz 0 2
| 15> C 0.00 0.00 0.00
| 16> H 0.9588046436 0.0000000000 -0.4970851591
| 17> H -0.4794023218 0.8303491786 -0.4970851591
| 18> H -0.4794023218 -0.8303491786 -0.4970851591
| 19> **                         ****END OF INPUT****
 Total Charge           Charge          ....    0
 Multiplicity           Mult            ....    2
 Number of Electrons    NEL             ....    9
Dispersion correction           -0.000007224
FINAL SINGLE POINT ENERGY       -39.809396794767
Dispersion correction            ... done
Dispersion correction           -0.000008142
FINAL SINGLE POINT ENERGY       -39.809943566754
Dispersion correction            ... done
Dispersion correction           -0.000008190
FINAL SINGLE POINT ENERGY       -39.809944870436
Dispersion correction            ... done
                    ***********************HURRAY********************

CARTESIAN COORDINATES (ANGSTROEM)
---------------------------------
  C      0.000013    0.000000    0.005894
  H      0.973946    0.000000   -0.499045
  H     -0.486979    0.843488   -0.499052
  H     -0.486979   -0.843488   -0.499052

 Multiplicity           Mult            ....    2
 Number of Electrons    NEL             ....    9
 Basis Dimension        Dim             ....   64

ORBITAL ENERGIES
----------------
                 SPIN UP ORBITALS
  NO   OCC          E(Eh)            E(eV)
   0   1.0000     -10.300360      -280.2870
   1   1.0000      -0.814643       -22.1676
   2   1.0000      -0.492230       -13.3943
   3   1.0000      -0.492189       -13.3932
   4   1.0000      -0.385546       -10.4912
   5   0.0000       0.074626         2.0307
   6   0.0000       0.160402         4.3648
   7   0.0000       0.160408         4.3649
   8   0.0000       0.177236         4.8228
   9   0.0000       0.193682         5.2704

                 SPIN DOWN ORBITALS
  NO   OCC          E(Eh)            E(eV)
   0   1.0000     -10.288760      -279.9714
   1   1.0000      -0.778444       -21.1825
   2   1.0000      -0.476838       -12.9754
   3   1.0000      -0.476829       -12.9752
   4   0.0000      -0.033272        -0.9054
   5   0.0000       0.082874         2.2551
   6   0.0000       0.165791         4.5114
   7   0.0000       0.165798         4.5116
   8   0.0000       0.199759         5.4357

MULLIKEN ATOMIC CHARGES AND SPIN POPULATIONS
--------------------------------------------
   0 C :   -0.668345    0.892947
   1 H :    0.222467    0.035651
   2 H :    0.222940    0.035701
   3 H :    0.222938    0.035701
Sum of atomic charges         :   -0.0000000

LOEWDIN ATOMIC CHARGES AND SPIN POPULATIONS
-------------------------------------------
   0 C :    0.042978    0.839802
   1 H :   -0.014375    0.053403
   2 H :   -0.014301    0.053398
   3 H :   -0.014301    0.053398

  Mayer bond orders larger than 0.100000
B(  0-C ,  1-H ) :   1.0141 B(  0-C ,  2-H ) :   1.0136 B(  0-C ,  3-H ) :   1.0136

Dispersion correction           -0.000008192
FINAL SINGLE POINT ENERGY       -39.809944874405

DIPOLE MOMENT
-------------
                                X             Y             Z
Electronic contribution:      0.00000      -0.00000       0.83563
Nuclear contribution   :     -0.00004      -0.00000      -1.13534
                        -----------------------------------------
Total Dipole Moment    :     -0.00004      -0.00000      -0.29971
                        -----------------------------------------
Magnitude (a.u.)       :      0.29971
Magnitude (Debye)      :      0.76179

Dispersion correction in the Hessian             ... done   (      0.1 sec)

VIBRATIONAL FREQUENCIES
-----------------------

Scaling factor for frequencies =  1.000000000  (already applied!)

   0:         0.00 cm**-1
   1:         0.00 cm**-1
   2:         0.00 cm**-1
   3:         0.00 cm**-1
   4:         0.00 cm**-1
   5:         0.00 cm**-1
   6:      1312.18 cm**-1
   7:      1395.47 cm**-1
   8:      1397.61 cm**-1
   9:      3049.11 cm**-1
  10:      3092.92 cm**-1
  11:      3093.11 cm**-1

IR SPECTRUM
-----------

 Mode   freq       eps      Int      T**2         TX        TY        TZ
       cm**-1   L/(mol*cm) km/mol    a.u.
----------------------------------------------------------------------------
  6:   1312.18   0.001671    8.44  0.000397  (-0.000037 -0.000000  0.019935)
  7:   1395.47   0.000910    4.60  0.000203  ( 0.000000 -0.014263 -0.000000)
  8:   1397.61   0.000924    4.67  0.000206  (-0.014362 -0.000000 -0.000141)
  9:   3049.11   0.000016    0.08  0.000002  ( 0.000124 -0.000000 -0.001270)
 10:   3092.92   0.007050   35.63  0.000711  (-0.026671  0.000002 -0.000054)
 11:   3093.11   0.007218   36.48  0.000728  ( 0.000002  0.026986  0.000000)

--------------------------
THERMOCHEMISTRY AT 298.15K
--------------------------

Temperature         ... 298.15 K
Pressure            ... 1.00 atm
Total Mass          ... 15.03 AMU

Throughout the following assumptions are being made:
  (1) The electronic state is orbitally nondegenerate
      but the spin degeneracy is treated
  (2) There are no thermally accessible electronically excited states
  (3) Hindered rotations indicated by low frequency modes are not
      treated as such but are treated as vibrations and this may
      cause some error
  (4) All equations used are the standard statistical mechanics
      equations for an ideal gas
  (5) All vibrations are strictly harmonic

freq.    1312.18  E(vib)   ...       0.01
freq.    1395.47  E(vib)   ...       0.00
freq.    1397.61  E(vib)   ...       0.00
freq.    3049.11  E(vib)   ...       0.00
freq.    3092.92  E(vib)   ...       0.00
freq.    3093.11  E(vib)   ...       0.00

------------
INNER ENERGY
------------

The inner energy is: U= E(el) + E(ZPE) + E(vib) + E(rot) + E(trans)
    E(el)   - is the total energy from the electronic structure calculation
              = E(kin-el) + E(nuc-el) + E(el-el) + E(nuc-nuc)
    E(ZPE)  - the the zero temperature vibrational energy from the frequency calculation
    E(vib)  - the the finite temperature correction to E(ZPE) due to population
              of excited vibrational states
    E(rot)  - is the rotational thermal energy
    E(trans)- is the translational thermal energy

Summary of contributions to the inner energy U:
Electronic energy                ...    -39.80994487 Eh
Zero point energy                ...      0.03039165 Eh      19.07 kcal/mol
Thermal vibrational correction   ...      0.00002575 Eh       0.02 kcal/mol
Thermal rotational correction    ...      0.00141627 Eh       0.89 kcal/mol
Thermal translational correction ...      0.00141627 Eh       0.89 kcal/mol
-----------------------------------------------------------------------
Total thermal energy                    -39.77669493 Eh

Summary of corrections to the electronic energy:
(perhaps to be used in another calculation)
Total thermal correction                  0.00285829 Eh       1.79 kcal/mol
Non-thermal (ZPE) correction              0.03039165 Eh      19.07 kcal/mol
-----------------------------------------------------------------------
Total correction                          0.03324994 Eh      20.86 kcal/mol

--------
ENTHALPY
--------

The enthalpy is H = U + kB*T
                kB is Boltzmann's constant
Total free energy                 ...    -39.77669493 Eh
Thermal Enthalpy correction       ...      0.00094421 Eh       0.59 kcal/mol
-----------------------------------------------------------------------
Total Enthalpy                    ...    -39.77575072 Eh

Note: Rotational entropy computed according to Herzberg
Infrared and Raman Spectra, Chapter V,1, Van Nostrand Reinhold, 1945
Point Group:  C3v, Symmetry Number:   3
Rotational constants in cm-1:     8.222443     8.222136     5.876653

Vibrational entropy computed according to the QRRHO of S. Grimme
Chem.Eur.J. 2012 18 9955

-------
ENTROPY
-------

The entropy contributions are T*S = T*(S(el)+S(vib)+S(rot)+S(trans))
     S(el)   - electronic entropy
     S(vib)  - vibrational entropy
     S(rot)  - rotational entropy
     S(trans)- translational entropy
The entropies will be listed as multiplied by the temperature to get
units of energy

Electronic entropy                ...      0.00065446 Eh      0.41 kcal/mol
Vibrational entropy               ...      0.00002968 Eh      0.02 kcal/mol
Rotational entropy                ...      0.00564821 Eh      3.54 kcal/mol
Translational entropy             ...      0.01618771 Eh     10.16 kcal/mol
-----------------------------------------------------------------------
Final entropy term                ...      0.02252005 Eh     14.13 kcal/mol

In case the symmetry of your molecule has not been determined correctly
or in case you have a reason to use a different symmetry number we print
out the resulting rotational entropy values for sn=1,12 :
 --------------------------------------------------------
|  sn= 1 | S(rot)=       0.00668550 Eh      4.20 kcal/mol|
|  sn= 2 | S(rot)=       0.00603104 Eh      3.78 kcal/mol|
|  sn= 3 | S(rot)=       0.00564821 Eh      3.54 kcal/mol|
|  sn= 4 | S(rot)=       0.00537658 Eh      3.37 kcal/mol|
|  sn= 5 | S(rot)=       0.00516590 Eh      3.24 kcal/mol|
|  sn= 6 | S(rot)=       0.00499375 Eh      3.13 kcal/mol|
|  sn= 7 | S(rot)=       0.00484821 Eh      3.04 kcal/mol|
|  sn= 8 | S(rot)=       0.00472213 Eh      2.96 kcal/mol|
|  sn= 9 | S(rot)=       0.00461092 Eh      2.89 kcal/mol|
|  sn=10 | S(rot)=       0.00451144 Eh      2.83 kcal/mol|
|  sn=11 | S(rot)=       0.00442145 Eh      2.77 kcal/mol|
|  sn=12 | S(rot)=       0.00433930 Eh      2.72 kcal/mol|
 --------------------------------------------------------

-------------------
GIBBS FREE ENERGY
-------------------

The Gibbs free energy is G = H - T*S

Total enthalpy                    ...    -39.77575072 Eh
Total entropy correction          ...     -0.02252005 Eh    -14.13 kcal/mol
-----------------------------------------------------------------------
Final Gibbs free energy         ...    -39.79827077 Eh

For completeness - the Gibbs free energy minus the electronic energy
G-E(el)                           ...      0.01167410 Eh      7.33 kcal/mol

                             ****ORCA TERMINATED NORMALLY****
TOTAL RUN TIME: 0 days 0 hours 1 minutes 15 seconds 465 msec
