                         Program Version 5.0.4 -  RELEASE  -
|  1> ! UKS TightSCF wB97x-D3 def2-TZVPD xyzfile opt freq
|  2>
|  3> # CH3 radical 98.0 degrees fixed
|  4>
|  5> %maxcore 1000
|  6> %pal
|  7> nprocs 18
|  8> end
|  9>
| 10> %geom Constraints
| 11>         { A * 0 * C }
| 12>     end
| 13> end
| 14> * xyz 0 2
| 15> C 0.00 0.00 0.00
| 16> H 0.9411806433 0.0000000000 -0.5296970801
| 17> H -0.4705903216 0.8150863466 -0.5296970801
| 18> H -0.4705903216 -0.8150863466 -0.5296970801
| 19> **                         ****END OF INPUT****
 Total Charge           Charge          ....    0
 Multiplicity           Mult            ....    2
 Number of Electrons    NEL             ....    9
Dispersion correction           -0.000006250
FINAL SINGLE POINT ENERGY       -39.802650951653
Dispersion correction            ... done
Dispersion correction           -0.000007148
FINAL SINGLE POINT ENERGY       -39.803344591128
Dispersion correction            ... done
Dispersion correction           -0.000007201
FINAL SINGLE POINT ENERGY       -39.803346635427
Dispersion correction            ... done
                    ***********************HURRAY********************

CARTESIAN COORDINATES (ANGSTROEM)
---------------------------------
  C      0.000009    0.000000    0.007100
  H      0.957991    0.000000   -0.532060
  H     -0.479000    0.829662   -0.532066
  H     -0.479000   -0.829662   -0.532066

 Multiplicity           Mult            ....    2
 Number of Electrons    NEL             ....    9
 Basis Dimension        Dim             ....   64

ORBITAL ENERGIES
----------------
                 SPIN UP ORBITALS
  NO   OCC          E(Eh)            E(eV)
   0   1.0000     -10.302370      -280.3417
   1   1.0000      -0.816898       -22.2289
   2   1.0000      -0.488054       -13.2806
   3   1.0000      -0.488026       -13.2799
   4   1.0000      -0.392703       -10.6860
   5   0.0000       0.074136         2.0173
   6   0.0000       0.160146         4.3578
   7   0.0000       0.160152         4.3580
   8   0.0000       0.172617         4.6971
   9   0.0000       0.193300         5.2600

                 SPIN DOWN ORBITALS
  NO   OCC          E(Eh)            E(eV)
   0   1.0000     -10.290567      -280.0206
   1   1.0000      -0.781624       -21.2691
   2   1.0000      -0.472361       -12.8536
   3   1.0000      -0.472349       -12.8533
   4   0.0000      -0.039137        -1.0650
   5   0.0000       0.082167         2.2359
   6   0.0000       0.165719         4.5094
   7   0.0000       0.165723         4.5095
   8   0.0000       0.199929         5.4403

MULLIKEN ATOMIC CHARGES AND SPIN POPULATIONS
--------------------------------------------
   0 C :   -0.661697    0.898101
   1 H :    0.220277    0.033983
   2 H :    0.220708    0.033958
   3 H :    0.220711    0.033958
Sum of atomic charges         :   -0.0000000

LOEWDIN ATOMIC CHARGES AND SPIN POPULATIONS
-------------------------------------------
   0 C :    0.040829    0.841087
   1 H :   -0.013648    0.052976
   2 H :   -0.013590    0.052969
   3 H :   -0.013590    0.052969

  Mayer bond orders larger than 0.100000
B(  0-C ,  1-H ) :   1.0198 B(  0-C ,  2-H ) :   1.0193 B(  0-C ,  3-H ) :   1.0193

Dispersion correction           -0.000007204
FINAL SINGLE POINT ENERGY       -39.803346643300

DIPOLE MOMENT
-------------
                                X             Y             Z
Electronic contribution:      0.00006      -0.00000       0.90242
Nuclear contribution   :     -0.00003      -0.00000      -1.21228
                        -----------------------------------------
Total Dipole Moment    :      0.00003      -0.00000      -0.30986
                        -----------------------------------------
Magnitude (a.u.)       :      0.30986
Magnitude (Debye)      :      0.78761

Dispersion correction in the Hessian             ... done   (      0.1 sec)

VIBRATIONAL FREQUENCIES
-----------------------

Scaling factor for frequencies =  1.000000000  (already applied!)

   0:         0.00 cm**-1
   1:         0.00 cm**-1
   2:         0.00 cm**-1
   3:         0.00 cm**-1
   4:         0.00 cm**-1
   5:         0.00 cm**-1
   6:      1345.63 cm**-1
   7:      1385.70 cm**-1
   8:      1387.16 cm**-1
   9:      3041.70 cm**-1
  10:      3065.36 cm**-1
  11:      3065.58 cm**-1

IR SPECTRUM
-----------

 Mode   freq       eps      Int      T**2         TX        TY        TZ
       cm**-1   L/(mol*cm) km/mol    a.u.
----------------------------------------------------------------------------
  6:   1345.63   0.001413    7.14  0.000328  ( 0.000647  0.000000 -0.018088)
  7:   1385.70   0.001031    5.21  0.000232  (-0.000001  0.015235  0.000000)
  8:   1387.16   0.001058    5.35  0.000238  (-0.015413 -0.000001 -0.000688)
  9:   3041.70   0.000016    0.08  0.000002  ( 0.000329 -0.000000 -0.001230)
 10:   3065.36   0.007877   39.81  0.000802  (-0.028318 -0.000014 -0.000063)
 11:   3065.58   0.008044   40.65  0.000819  (-0.000014  0.028615 -0.000000)

--------------------------
THERMOCHEMISTRY AT 298.15K
--------------------------

Temperature         ... 298.15 K
Pressure            ... 1.00 atm
Total Mass          ... 15.03 AMU

Throughout the following assumptions are being made:
  (1) The electronic state is orbitally nondegenerate
      but the spin degeneracy is treated
  (2) There are no thermally accessible electronically excited states
  (3) Hindered rotations indicated by low frequency modes are not
      treated as such but are treated as vibrations and this may
      cause some error
  (4) All equations used are the standard statistical mechanics
      equations for an ideal gas
  (5) All vibrations are strictly harmonic

freq.    1345.63  E(vib)   ...       0.01
freq.    1385.70  E(vib)   ...       0.00
freq.    1387.16  E(vib)   ...       0.00
freq.    3041.70  E(vib)   ...       0.00
freq.    3065.36  E(vib)   ...       0.00
freq.    3065.58  E(vib)   ...       0.00

------------
INNER ENERGY
------------

The inner energy is: U= E(el) + E(ZPE) + E(vib) + E(rot) + E(trans)
    E(el)   - is the total energy from the electronic structure calculation
              = E(kin-el) + E(nuc-el) + E(el-el) + E(nuc-nuc)
    E(ZPE)  - the the zero temperature vibrational energy from the frequency calculation
    E(vib)  - the the finite temperature correction to E(ZPE) due to population
              of excited vibrational states
    E(rot)  - is the rotational thermal energy
    E(trans)- is the translational thermal energy

Summary of contributions to the inner energy U:
Electronic energy                ...    -39.80334664 Eh
Zero point energy                ...      0.03027942 Eh      19.00 kcal/mol
Thermal vibrational correction   ...      0.00002503 Eh       0.02 kcal/mol
Thermal rotational correction    ...      0.00141627 Eh       0.89 kcal/mol
Thermal translational correction ...      0.00141627 Eh       0.89 kcal/mol
-----------------------------------------------------------------------
Total thermal energy                    -39.77020964 Eh

Summary of corrections to the electronic energy:
(perhaps to be used in another calculation)
Total thermal correction                  0.00285757 Eh       1.79 kcal/mol
Non-thermal (ZPE) correction              0.03027942 Eh      19.00 kcal/mol
-----------------------------------------------------------------------
Total correction                          0.03313700 Eh      20.79 kcal/mol

--------
ENTHALPY
--------

The enthalpy is H = U + kB*T
                kB is Boltzmann's constant
Total free energy                 ...    -39.77020964 Eh
Thermal Enthalpy correction       ...      0.00094421 Eh       0.59 kcal/mol
-----------------------------------------------------------------------
Total Enthalpy                    ...    -39.76926544 Eh

Note: Rotational entropy computed according to Herzberg
Infrared and Raman Spectra, Chapter V,1, Van Nostrand Reinhold, 1945
Point Group:  C3v, Symmetry Number:   3
Rotational constants in cm-1:     8.066228     8.066034     6.074099

Vibrational entropy computed according to the QRRHO of S. Grimme
Chem.Eur.J. 2012 18 9955

-------
ENTROPY
-------

The entropy contributions are T*S = T*(S(el)+S(vib)+S(rot)+S(trans))
     S(el)   - electronic entropy
     S(vib)  - vibrational entropy
     S(rot)  - rotational entropy
     S(trans)- translational entropy
The entropies will be listed as multiplied by the temperature to get
units of energy

Electronic entropy                ...      0.00065446 Eh      0.41 kcal/mol
Vibrational entropy               ...      0.00002882 Eh      0.02 kcal/mol
Rotational entropy                ...      0.00565071 Eh      3.55 kcal/mol
Translational entropy             ...      0.01618771 Eh     10.16 kcal/mol
-----------------------------------------------------------------------
Final entropy term                ...      0.02252169 Eh     14.13 kcal/mol

In case the symmetry of your molecule has not been determined correctly
or in case you have a reason to use a different symmetry number we print
out the resulting rotational entropy values for sn=1,12 :
 --------------------------------------------------------
|  sn= 1 | S(rot)=       0.00668800 Eh      4.20 kcal/mol|
|  sn= 2 | S(rot)=       0.00603354 Eh      3.79 kcal/mol|
|  sn= 3 | S(rot)=       0.00565071 Eh      3.55 kcal/mol|
|  sn= 4 | S(rot)=       0.00537909 Eh      3.38 kcal/mol|
|  sn= 5 | S(rot)=       0.00516840 Eh      3.24 kcal/mol|
|  sn= 6 | S(rot)=       0.00499626 Eh      3.14 kcal/mol|
|  sn= 7 | S(rot)=       0.00485071 Eh      3.04 kcal/mol|
|  sn= 8 | S(rot)=       0.00472463 Eh      2.96 kcal/mol|
|  sn= 9 | S(rot)=       0.00461342 Eh      2.89 kcal/mol|
|  sn=10 | S(rot)=       0.00451394 Eh      2.83 kcal/mol|
|  sn=11 | S(rot)=       0.00442395 Eh      2.78 kcal/mol|
|  sn=12 | S(rot)=       0.00434180 Eh      2.72 kcal/mol|
 --------------------------------------------------------

-------------------
GIBBS FREE ENERGY
-------------------

The Gibbs free energy is G = H - T*S

Total enthalpy                    ...    -39.76926544 Eh
Total entropy correction          ...     -0.02252169 Eh    -14.13 kcal/mol
-----------------------------------------------------------------------
Final Gibbs free energy         ...    -39.79178713 Eh

For completeness - the Gibbs free energy minus the electronic energy
G-E(el)                           ...      0.01155951 Eh      7.25 kcal/mol

                             ****ORCA TERMINATED NORMALLY****
TOTAL RUN TIME: 0 days 0 hours 1 minutes 52 seconds 154 msec
