                         Program Version 5.0.4 -  RELEASE  -
|  1> ! UKS TightSCF wB97x-D3 def2-TZVPD xyzfile opt freq
|  2>
|  3> # CH3 radical 110.5 degrees fixed
|  4>
|  5> %maxcore 1000
|  6> %pal
|  7> nprocs 18
|  8> end
|  9>
| 10> %geom Constraints
| 11>         { A * 0 * C }
| 12>     end
| 13> end
| 14> * xyz 0 2
| 15> C 0.00 0.00 0.00
| 16> H 1.0246566545 0.0000000000 -0.3412898187
| 17> H -0.5123283273 0.8873786930 -0.3412898187
| 18> H -0.5123283273 -0.8873786930 -0.3412898187
| 19> **                         ****END OF INPUT****
 Total Charge           Charge          ....    0
 Multiplicity           Mult            ....    2
 Number of Electrons    NEL             ....    9
Dispersion correction           -0.000012173
FINAL SINGLE POINT ENERGY       -39.829838034466
Dispersion correction            ... done
Dispersion correction           -0.000012929
FINAL SINGLE POINT ENERGY       -39.829974084727
Dispersion correction            ... done
                    ***********************HURRAY********************

CARTESIAN COORDINATES (ANGSTROEM)
---------------------------------
  C      0.000002   -0.000000    0.001987
  H      1.032607   -0.000000   -0.341952
  H     -0.516304    0.894268   -0.341952
  H     -0.516304   -0.894268   -0.341952

 Multiplicity           Mult            ....    2
 Number of Electrons    NEL             ....    9
 Basis Dimension        Dim             ....   64

ORBITAL ENERGIES
----------------
                 SPIN UP ORBITALS
  NO   OCC          E(Eh)            E(eV)
   0   1.0000     -10.292701      -280.0786
   1   1.0000      -0.807346       -21.9690
   2   1.0000      -0.507990       -13.8231
   3   1.0000      -0.507964       -13.8224
   4   1.0000      -0.356013        -9.6876
   5   0.0000       0.075865         2.0644
   6   0.0000       0.161042         4.3822
   7   0.0000       0.161051         4.3824
   8   0.0000       0.196913         5.3583
   9   0.0000       0.196921         5.3585

                 SPIN DOWN ORBITALS
  NO   OCC          E(Eh)            E(eV)
   0   1.0000     -10.281899      -279.7847
   1   1.0000      -0.766886       -20.8680
   2   1.0000      -0.494009       -13.4427
   3   1.0000      -0.493936       -13.4407
   4   0.0000      -0.010081        -0.2743
   5   0.0000       0.085174         2.3177
   6   0.0000       0.165750         4.5103
   7   0.0000       0.165763         4.5106
   8   0.0000       0.199957         5.4411

MULLIKEN ATOMIC CHARGES AND SPIN POPULATIONS
--------------------------------------------
   0 C :   -0.702414    0.888114
   1 H :    0.233903    0.037256
   2 H :    0.234254    0.037315
   3 H :    0.234256    0.037315
Sum of atomic charges         :   -0.0000000

LOEWDIN ATOMIC CHARGES AND SPIN POPULATIONS
-------------------------------------------
   0 C :    0.052213    0.836103
   1 H :   -0.017422    0.054646
   2 H :   -0.017396    0.054625
   3 H :   -0.017396    0.054625

  Mayer bond orders larger than 0.100000
B(  0-C ,  1-H ) :   0.9854 B(  0-C ,  2-H ) :   0.9849 B(  0-C ,  3-H ) :   0.9849

Dispersion correction           -0.000012950
FINAL SINGLE POINT ENERGY       -39.829974178881

DIPOLE MOMENT
-------------
                                X             Y             Z
Electronic contribution:      0.00018      -0.00000       0.53396
Nuclear contribution   :     -0.00000       0.00000      -0.77333
                        -----------------------------------------
Total Dipole Moment    :      0.00017       0.00000      -0.23936
                        -----------------------------------------
Magnitude (a.u.)       :      0.23936
Magnitude (Debye)      :      0.60842

Dispersion correction in the Hessian             ... done   (      0.1 sec)

VIBRATIONAL FREQUENCIES
-----------------------

Scaling factor for frequencies =  1.000000000  (already applied!)

   0:         0.00 cm**-1
   1:         0.00 cm**-1
   2:         0.00 cm**-1
   3:         0.00 cm**-1
   4:         0.00 cm**-1
   5:         0.00 cm**-1
   6:      1112.49 cm**-1
   7:      1419.53 cm**-1
   8:      1420.41 cm**-1
   9:      3083.07 cm**-1
  10:      3202.05 cm**-1
  11:      3202.06 cm**-1

IR SPECTRUM
-----------

 Mode   freq       eps      Int      T**2         TX        TY        TZ
       cm**-1   L/(mol*cm) km/mol    a.u.
----------------------------------------------------------------------------
  6:   1112.49   0.004462   22.55  0.001252  ( 0.000085 -0.000000 -0.035378)
  7:   1419.53   0.000615    3.11  0.000135  (-0.011625 -0.000000 -0.000391)
  8:   1420.41   0.000621    3.14  0.000136  (-0.000000  0.011679 -0.000000)
  9:   3083.07   0.000015    0.08  0.000002  (-0.000019  0.000000 -0.001234)
 10:   3202.05   0.003750   18.95  0.000366  ( 0.019112 -0.000500 -0.000026)
 11:   3202.06   0.003806   19.23  0.000371  (-0.000496 -0.019252  0.000001)

--------------------------
THERMOCHEMISTRY AT 298.15K
--------------------------

Temperature         ... 298.15 K
Pressure            ... 1.00 atm
Total Mass          ... 15.03 AMU

Throughout the following assumptions are being made:
  (1) The electronic state is orbitally nondegenerate
      but the spin degeneracy is treated
  (2) There are no thermally accessible electronically excited states
  (3) Hindered rotations indicated by low frequency modes are not
      treated as such but are treated as vibrations and this may
      cause some error
  (4) All equations used are the standard statistical mechanics
      equations for an ideal gas
  (5) All vibrations are strictly harmonic

freq.    1112.49  E(vib)   ...       0.01
freq.    1419.53  E(vib)   ...       0.00
freq.    1420.41  E(vib)   ...       0.00
freq.    3083.07  E(vib)   ...       0.00
freq.    3202.05  E(vib)   ...       0.00
freq.    3202.06  E(vib)   ...       0.00

------------
INNER ENERGY
------------

The inner energy is: U= E(el) + E(ZPE) + E(vib) + E(rot) + E(trans)
    E(el)   - is the total energy from the electronic structure calculation
              = E(kin-el) + E(nuc-el) + E(el-el) + E(nuc-nuc)
    E(ZPE)  - the the zero temperature vibrational energy from the frequency calculation
    E(vib)  - the the finite temperature correction to E(ZPE) due to population
              of excited vibrational states
    E(rot)  - is the rotational thermal energy
    E(trans)- is the translational thermal energy

Summary of contributions to the inner energy U:
Electronic energy                ...    -39.82997418 Eh
Zero point energy                ...      0.03061768 Eh      19.21 kcal/mol
Thermal vibrational correction   ...      0.00003744 Eh       0.02 kcal/mol
Thermal rotational correction    ...      0.00141627 Eh       0.89 kcal/mol
Thermal translational correction ...      0.00141627 Eh       0.89 kcal/mol
-----------------------------------------------------------------------
Total thermal energy                    -39.79648651 Eh

Summary of corrections to the electronic energy:
(perhaps to be used in another calculation)
Total thermal correction                  0.00286999 Eh       1.80 kcal/mol
Non-thermal (ZPE) correction              0.03061768 Eh      19.21 kcal/mol
-----------------------------------------------------------------------
Total correction                          0.03348767 Eh      21.01 kcal/mol

--------
ENTHALPY
--------

The enthalpy is H = U + kB*T
                kB is Boltzmann's constant
Total free energy                 ...    -39.79648651 Eh
Thermal Enthalpy correction       ...      0.00094421 Eh       0.59 kcal/mol
-----------------------------------------------------------------------
Total Enthalpy                    ...    -39.79554230 Eh

Note: Rotational entropy computed according to Herzberg
Infrared and Raman Spectra, Chapter V,1, Van Nostrand Reinhold, 1945
Point Group:  C3v, Symmetry Number:   3
Rotational constants in cm-1:     8.881862     8.881808     5.228087

Vibrational entropy computed according to the QRRHO of S. Grimme
Chem.Eur.J. 2012 18 9955

-------
ENTROPY
-------

The entropy contributions are T*S = T*(S(el)+S(vib)+S(rot)+S(trans))
     S(el)   - electronic entropy
     S(vib)  - vibrational entropy
     S(rot)  - rotational entropy
     S(trans)- translational entropy
The entropies will be listed as multiplied by the temperature to get
units of energy

Electronic entropy                ...      0.00065446 Eh      0.41 kcal/mol
Vibrational entropy               ...      0.00004387 Eh      0.03 kcal/mol
Rotational entropy                ...      0.00563056 Eh      3.53 kcal/mol
Translational entropy             ...      0.01618771 Eh     10.16 kcal/mol
-----------------------------------------------------------------------
Final entropy term                ...      0.02251660 Eh     14.13 kcal/mol

In case the symmetry of your molecule has not been determined correctly
or in case you have a reason to use a different symmetry number we print
out the resulting rotational entropy values for sn=1,12 :
 --------------------------------------------------------
|  sn= 1 | S(rot)=       0.00666785 Eh      4.18 kcal/mol|
|  sn= 2 | S(rot)=       0.00601340 Eh      3.77 kcal/mol|
|  sn= 3 | S(rot)=       0.00563056 Eh      3.53 kcal/mol|
|  sn= 4 | S(rot)=       0.00535894 Eh      3.36 kcal/mol|
|  sn= 5 | S(rot)=       0.00514825 Eh      3.23 kcal/mol|
|  sn= 6 | S(rot)=       0.00497611 Eh      3.12 kcal/mol|
|  sn= 7 | S(rot)=       0.00483056 Eh      3.03 kcal/mol|
|  sn= 8 | S(rot)=       0.00470448 Eh      2.95 kcal/mol|
|  sn= 9 | S(rot)=       0.00459327 Eh      2.88 kcal/mol|
|  sn=10 | S(rot)=       0.00449380 Eh      2.82 kcal/mol|
|  sn=11 | S(rot)=       0.00440381 Eh      2.76 kcal/mol|
|  sn=12 | S(rot)=       0.00432165 Eh      2.71 kcal/mol|
 --------------------------------------------------------

-------------------
GIBBS FREE ENERGY
-------------------

The Gibbs free energy is G = H - T*S

Total enthalpy                    ...    -39.79554230 Eh
Total entropy correction          ...     -0.02251660 Eh    -14.13 kcal/mol
-----------------------------------------------------------------------
Final Gibbs free energy         ...    -39.81805890 Eh

For completeness - the Gibbs free energy minus the electronic energy
G-E(el)                           ...      0.01191528 Eh      7.48 kcal/mol

                             ****ORCA TERMINATED NORMALLY****
TOTAL RUN TIME: 0 days 0 hours 1 minutes 25 seconds 262 msec
