                         Program Version 5.0.4 -  RELEASE  -
|  1> ! UKS TightSCF wB97x-D3 def2-TZVPD xyzfile opt freq
|  2>
|  3> # CH3 radical 115.0 degrees fixed
|  4>
|  5> %maxcore 1000
|  6> %pal
|  7> nprocs 18
|  8> end
|  9>
| 10> %geom Constraints
| 11>         { A * 0 * C }
| 12>     end
| 13> end
| 14> * xyz 0 2
| 15> C 0.00 0.00 0.00
| 16> H 1.0517737211 0.0000000000 -0.2452998974
| 17> H -0.5258868605 0.9108627615 -0.2452998974
| 18> H -0.5258868605 -0.9108627615 -0.2452998974
| 19> **                         ****END OF INPUT****
 Total Charge           Charge          ....    0
 Multiplicity           Mult            ....    2
 Number of Electrons    NEL             ....    9
Dispersion correction           -0.000014957
FINAL SINGLE POINT ENERGY       -39.835637851722
Dispersion correction            ... done
Dispersion correction           -0.000015437
FINAL SINGLE POINT ENERGY       -39.835674919904
Dispersion correction            ... done
                    ***********************HURRAY********************

CARTESIAN COORDINATES (ANGSTROEM)
---------------------------------
  C     -0.000007    0.000000    0.000739
  H      1.056011    0.000000   -0.245547
  H     -0.528002    0.914515   -0.245546
  H     -0.528002   -0.914516   -0.245546

 Multiplicity           Mult            ....    2
 Number of Electrons    NEL             ....    9
 Basis Dimension        Dim             ....   64

ORBITAL ENERGIES
----------------
                 SPIN UP ORBITALS
  NO   OCC          E(Eh)            E(eV)
   0   1.0000     -10.289289      -279.9858
   1   1.0000      -0.804782       -21.8992
   2   1.0000      -0.514525       -14.0009
   3   1.0000      -0.514501       -14.0003
   4   1.0000      -0.342257        -9.3133
   5   0.0000       0.076162         2.0725
   6   0.0000       0.161180         4.3859
   7   0.0000       0.161189         4.3862
   8   0.0000       0.199982         5.4418
   9   0.0000       0.199989         5.4420

                 SPIN DOWN ORBITALS
  NO   OCC          E(Eh)            E(eV)
   0   1.0000     -10.278845      -279.7016
   1   1.0000      -0.762058       -20.7367
   2   1.0000      -0.501214       -13.6387
   3   1.0000      -0.501191       -13.6381
   4   0.0000      -0.000064        -0.0017
   5   0.0000       0.085951         2.3388
   6   0.0000       0.165464         4.5025
   7   0.0000       0.165471         4.5027
   8   0.0000       0.201441         5.4815

MULLIKEN ATOMIC CHARGES AND SPIN POPULATIONS
--------------------------------------------
   0 C :   -0.720968    0.899800
   1 H :    0.240177    0.033365
   2 H :    0.240396    0.033418
   3 H :    0.240395    0.033418
Sum of atomic charges         :    0.0000000

LOEWDIN ATOMIC CHARGES AND SPIN POPULATIONS
-------------------------------------------
   0 C :    0.056423    0.835482
   1 H :   -0.018802    0.054854
   2 H :   -0.018810    0.054832
   3 H :   -0.018810    0.054832

  Mayer bond orders larger than 0.100000
B(  0-C ,  1-H ) :   0.9681 B(  0-C ,  2-H ) :   0.9678 B(  0-C ,  3-H ) :   0.9678

Dispersion correction           -0.000015444
FINAL SINGLE POINT ENERGY       -39.835674928707

DIPOLE MOMENT
-------------
                                X             Y             Z
Electronic contribution:      0.00010      -0.00000       0.36683
Nuclear contribution   :      0.00002      -0.00000      -0.55376
                        -----------------------------------------
Total Dipole Moment    :      0.00012      -0.00000      -0.18693
                        -----------------------------------------
Magnitude (a.u.)       :      0.18693
Magnitude (Debye)      :      0.47515

Dispersion correction in the Hessian             ... done   (      0.1 sec)

VIBRATIONAL FREQUENCIES
-----------------------

Scaling factor for frequencies =  1.000000000  (already applied!)

   0:         0.00 cm**-1
   1:         0.00 cm**-1
   2:         0.00 cm**-1
   3:         0.00 cm**-1
   4:         0.00 cm**-1
   5:         0.00 cm**-1
   6:       939.98 cm**-1
   7:      1417.45 cm**-1
   8:      1424.64 cm**-1
   9:      3103.60 cm**-1
  10:      3252.92 cm**-1
  11:      3253.63 cm**-1

IR SPECTRUM
-----------

 Mode   freq       eps      Int      T**2         TX        TY        TZ
       cm**-1   L/(mol*cm) km/mol    a.u.
----------------------------------------------------------------------------
  6:    939.98   0.007848   39.66  0.002606  (-0.000109  0.000000  0.051045)
  7:   1417.45   0.000578    2.92  0.000127  ( 0.011271 -0.000000 -0.000483)
  8:   1424.64   0.000572    2.89  0.000125  ( 0.000000  0.011197 -0.000000)
  9:   3103.60   0.000009    0.04  0.000001  ( 0.000085 -0.000000 -0.000941)
 10:   3252.92   0.002304   11.64  0.000221  (-0.014867 -0.000005 -0.000016)
 11:   3253.63   0.002299   11.62  0.000221  (-0.000005  0.014849 -0.000000)

--------------------------
THERMOCHEMISTRY AT 298.15K
--------------------------

Temperature         ... 298.15 K
Pressure            ... 1.00 atm
Total Mass          ... 15.03 AMU

Throughout the following assumptions are being made:
  (1) The electronic state is orbitally nondegenerate
      but the spin degeneracy is treated
  (2) There are no thermally accessible electronically excited states
  (3) Hindered rotations indicated by low frequency modes are not
      treated as such but are treated as vibrations and this may
      cause some error
  (4) All equations used are the standard statistical mechanics
      equations for an ideal gas
  (5) All vibrations are strictly harmonic

freq.     939.98  E(vib)   ...       0.03
freq.    1417.45  E(vib)   ...       0.00
freq.    1424.64  E(vib)   ...       0.00
freq.    3103.60  E(vib)   ...       0.00
freq.    3252.92  E(vib)   ...       0.00
freq.    3253.63  E(vib)   ...       0.00

------------
INNER ENERGY
------------

The inner energy is: U= E(el) + E(ZPE) + E(vib) + E(rot) + E(trans)
    E(el)   - is the total energy from the electronic structure calculation
              = E(kin-el) + E(nuc-el) + E(el-el) + E(nuc-nuc)
    E(ZPE)  - the the zero temperature vibrational energy from the frequency calculation
    E(vib)  - the the finite temperature correction to E(ZPE) due to population
              of excited vibrational states
    E(rot)  - is the rotational thermal energy
    E(trans)- is the translational thermal energy

Summary of contributions to the inner energy U:
Electronic energy                ...    -39.83567493 Eh
Zero point energy                ...      0.03050973 Eh      19.15 kcal/mol
Thermal vibrational correction   ...      0.00006004 Eh       0.04 kcal/mol
Thermal rotational correction    ...      0.00141627 Eh       0.89 kcal/mol
Thermal translational correction ...      0.00141627 Eh       0.89 kcal/mol
-----------------------------------------------------------------------
Total thermal energy                    -39.80227262 Eh

Summary of corrections to the electronic energy:
(perhaps to be used in another calculation)
Total thermal correction                  0.00289258 Eh       1.82 kcal/mol
Non-thermal (ZPE) correction              0.03050973 Eh      19.15 kcal/mol
-----------------------------------------------------------------------
Total correction                          0.03340231 Eh      20.96 kcal/mol

--------
ENTHALPY
--------

The enthalpy is H = U + kB*T
                kB is Boltzmann's constant
Total free energy                 ...    -39.80227262 Eh
Thermal Enthalpy correction       ...      0.00094421 Eh       0.59 kcal/mol
-----------------------------------------------------------------------
Total Enthalpy                    ...    -39.80132841 Eh

Note: Rotational entropy computed according to Herzberg
Infrared and Raman Spectra, Chapter V,1, Van Nostrand Reinhold, 1945
Point Group:  C3v, Symmetry Number:   3
Rotational constants in cm-1:     9.198800     9.198520     4.999045

Vibrational entropy computed according to the QRRHO of S. Grimme
Chem.Eur.J. 2012 18 9955

-------
ENTROPY
-------

The entropy contributions are T*S = T*(S(el)+S(vib)+S(rot)+S(trans))
     S(el)   - electronic entropy
     S(vib)  - vibrational entropy
     S(rot)  - rotational entropy
     S(trans)- translational entropy
The entropies will be listed as multiplied by the temperature to get
units of energy

Electronic entropy                ...      0.00065446 Eh      0.41 kcal/mol
Vibrational entropy               ...      0.00007223 Eh      0.05 kcal/mol
Rotational entropy                ...      0.00561862 Eh      3.53 kcal/mol
Translational entropy             ...      0.01618771 Eh     10.16 kcal/mol
-----------------------------------------------------------------------
Final entropy term                ...      0.02253302 Eh     14.14 kcal/mol

In case the symmetry of your molecule has not been determined correctly
or in case you have a reason to use a different symmetry number we print
out the resulting rotational entropy values for sn=1,12 :
 --------------------------------------------------------
|  sn= 1 | S(rot)=       0.00665591 Eh      4.18 kcal/mol|
|  sn= 2 | S(rot)=       0.00600145 Eh      3.77 kcal/mol|
|  sn= 3 | S(rot)=       0.00561862 Eh      3.53 kcal/mol|
|  sn= 4 | S(rot)=       0.00534700 Eh      3.36 kcal/mol|
|  sn= 5 | S(rot)=       0.00513631 Eh      3.22 kcal/mol|
|  sn= 6 | S(rot)=       0.00496416 Eh      3.12 kcal/mol|
|  sn= 7 | S(rot)=       0.00481862 Eh      3.02 kcal/mol|
|  sn= 8 | S(rot)=       0.00469254 Eh      2.94 kcal/mol|
|  sn= 9 | S(rot)=       0.00458133 Eh      2.87 kcal/mol|
|  sn=10 | S(rot)=       0.00448185 Eh      2.81 kcal/mol|
|  sn=11 | S(rot)=       0.00439186 Eh      2.76 kcal/mol|
|  sn=12 | S(rot)=       0.00430971 Eh      2.70 kcal/mol|
 --------------------------------------------------------

-------------------
GIBBS FREE ENERGY
-------------------

The Gibbs free energy is G = H - T*S

Total enthalpy                    ...    -39.80132841 Eh
Total entropy correction          ...     -0.02253302 Eh    -14.14 kcal/mol
-----------------------------------------------------------------------
Final Gibbs free energy         ...    -39.82386142 Eh

For completeness - the Gibbs free energy minus the electronic energy
G-E(el)                           ...      0.01181351 Eh      7.41 kcal/mol

                             ****ORCA TERMINATED NORMALLY****
TOTAL RUN TIME: 0 days 0 hours 0 minutes 54 seconds 979 msec
