                         Program Version 5.0.4 -  RELEASE  -
|  1> ! UKS TightSCF wB97x-D3 def2-TZVPD xyzfile opt freq
|  2>
|  3> # CH3 radical 102.5 degrees fixed
|  4>
|  5> %maxcore 1000
|  6> %pal
|  7> nprocs 18
|  8> end
|  9>
| 10> %geom Constraints
| 11>         { A * 0 * C }
| 12>     end
| 13> end
| 14> * xyz 0 2
| 15> C 0.00 0.00 0.00
| 16> H 0.9725756751 0.0000000000 -0.4695706083
| 17> H -0.4862878376 0.8422752417 -0.4695706083
| 18> H -0.4862878376 -0.8422752417 -0.4695706083
| 19> **                         ****END OF INPUT****
 Total Charge           Charge          ....    0
 Multiplicity           Mult            ....    2
 Number of Electrons    NEL             ....    9
Dispersion correction           -0.000008078
FINAL SINGLE POINT ENERGY       -39.814317976404
Dispersion correction            ... done
Dispersion correction           -0.000008998
FINAL SINGLE POINT ENERGY       -39.814760853213
Dispersion correction            ... done
Dispersion correction           -0.000009041
FINAL SINGLE POINT ENERGY       -39.814761723426
Dispersion correction            ... done
                    ***********************HURRAY********************

CARTESIAN COORDINATES (ANGSTROEM)
---------------------------------
  C      0.000017    0.000000    0.004996
  H      0.986350    0.000000   -0.471230
  H     -0.493184    0.854240   -0.471239
  H     -0.493184   -0.854240   -0.471239

 Multiplicity           Mult            ....    2
 Number of Electrons    NEL             ....    9
 Basis Dimension        Dim             ....   64

ORBITAL ENERGIES
----------------
                 SPIN UP ORBITALS
  NO   OCC          E(Eh)            E(eV)
   0   1.0000     -10.298790      -280.2443
   1   1.0000      -0.812975       -22.1222
   2   1.0000      -0.495507       -13.4834
   3   1.0000      -0.495462       -13.4822
   4   1.0000      -0.379758       -10.3338
   5   0.0000       0.074961         2.0398
   6   0.0000       0.160575         4.3695
   7   0.0000       0.160581         4.3696
   8   0.0000       0.181257         4.9322
   9   0.0000       0.194082         5.2812

                 SPIN DOWN ORBITALS
  NO   OCC          E(Eh)            E(eV)
   0   1.0000     -10.287351      -279.9330
   1   1.0000      -0.775999       -21.1160
   2   1.0000      -0.480366       -13.0714
   3   1.0000      -0.480363       -13.0713
   4   0.0000      -0.028586        -0.7779
   5   0.0000       0.083400         2.2694
   6   0.0000       0.165828         4.5124
   7   0.0000       0.165835         4.5126
   8   0.0000       0.199651         5.4328

MULLIKEN ATOMIC CHARGES AND SPIN POPULATIONS
--------------------------------------------
   0 C :   -0.674156    0.889526
   1 H :    0.224391    0.036768
   2 H :    0.224880    0.036853
   3 H :    0.224884    0.036853
Sum of atomic charges         :   -0.0000000

LOEWDIN ATOMIC CHARGES AND SPIN POPULATIONS
-------------------------------------------
   0 C :    0.044767    0.838869
   1 H :   -0.014978    0.053714
   2 H :   -0.014894    0.053708
   3 H :   -0.014894    0.053708

  Mayer bond orders larger than 0.100000
B(  0-C ,  1-H ) :   1.0090 B(  0-C ,  2-H ) :   1.0085 B(  0-C ,  3-H ) :   1.0085

Dispersion correction           -0.000009043
FINAL SINGLE POINT ENERGY       -39.814761725571

DIPOLE MOMENT
-------------
                                X             Y             Z
Electronic contribution:      0.00000      -0.00000       0.78013
Nuclear contribution   :     -0.00005      -0.00000      -1.07078
                        -----------------------------------------
Total Dipole Moment    :     -0.00005      -0.00000      -0.29065
                        -----------------------------------------
Magnitude (a.u.)       :      0.29065
Magnitude (Debye)      :      0.73878

Dispersion correction in the Hessian             ... done   (      0.1 sec)

VIBRATIONAL FREQUENCIES
-----------------------

Scaling factor for frequencies =  1.000000000  (already applied!)

   0:         0.00 cm**-1
   1:         0.00 cm**-1
   2:         0.00 cm**-1
   3:         0.00 cm**-1
   4:         0.00 cm**-1
   5:         0.00 cm**-1
   6:      1280.24 cm**-1
   7:      1400.89 cm**-1
   8:      1403.53 cm**-1
   9:      3055.22 cm**-1
  10:      3114.78 cm**-1
  11:      3114.82 cm**-1

IR SPECTRUM
-----------

 Mode   freq       eps      Int      T**2         TX        TY        TZ
       cm**-1   L/(mol*cm) km/mol    a.u.
----------------------------------------------------------------------------
  6:   1280.24   0.001950    9.85  0.000475  ( 0.000124 -0.000000  0.021802)
  7:   1400.89   0.000832    4.20  0.000185  ( 0.000000 -0.013611 -0.000000)
  8:   1403.53   0.000832    4.20  0.000185  (-0.013601 -0.000000 -0.000026)
  9:   3055.22   0.000017    0.08  0.000002  ( 0.000034  0.000000 -0.001302)
 10:   3114.78   0.006390   32.29  0.000640  (-0.025303  0.000013 -0.000041)
 11:   3114.82   0.006547   33.09  0.000656  ( 0.000013  0.025611  0.000000)

--------------------------
THERMOCHEMISTRY AT 298.15K
--------------------------

Temperature         ... 298.15 K
Pressure            ... 1.00 atm
Total Mass          ... 15.03 AMU

Throughout the following assumptions are being made:
  (1) The electronic state is orbitally nondegenerate
      but the spin degeneracy is treated
  (2) There are no thermally accessible electronically excited states
  (3) Hindered rotations indicated by low frequency modes are not
      treated as such but are treated as vibrations and this may
      cause some error
  (4) All equations used are the standard statistical mechanics
      equations for an ideal gas
  (5) All vibrations are strictly harmonic

freq.    1280.24  E(vib)   ...       0.01
freq.    1400.89  E(vib)   ...       0.00
freq.    1403.53  E(vib)   ...       0.00
freq.    3055.22  E(vib)   ...       0.00
freq.    3114.78  E(vib)   ...       0.00
freq.    3114.82  E(vib)   ...       0.00

------------
INNER ENERGY
------------

The inner energy is: U= E(el) + E(ZPE) + E(vib) + E(rot) + E(trans)
    E(el)   - is the total energy from the electronic structure calculation
              = E(kin-el) + E(nuc-el) + E(el-el) + E(nuc-nuc)
    E(ZPE)  - the the zero temperature vibrational energy from the frequency calculation
    E(vib)  - the the finite temperature correction to E(ZPE) due to population
              of excited vibrational states
    E(rot)  - is the rotational thermal energy
    E(trans)- is the translational thermal energy

Summary of contributions to the inner energy U:
Electronic energy                ...    -39.81476173 Eh
Zero point energy                ...      0.03045792 Eh      19.11 kcal/mol
Thermal vibrational correction   ...      0.00002688 Eh       0.02 kcal/mol
Thermal rotational correction    ...      0.00141627 Eh       0.89 kcal/mol
Thermal translational correction ...      0.00141627 Eh       0.89 kcal/mol
-----------------------------------------------------------------------
Total thermal energy                    -39.78144439 Eh

Summary of corrections to the electronic energy:
(perhaps to be used in another calculation)
Total thermal correction                  0.00285942 Eh       1.79 kcal/mol
Non-thermal (ZPE) correction              0.03045792 Eh      19.11 kcal/mol
-----------------------------------------------------------------------
Total correction                          0.03331734 Eh      20.91 kcal/mol

--------
ENTHALPY
--------

The enthalpy is H = U + kB*T
                kB is Boltzmann's constant
Total free energy                 ...    -39.78144439 Eh
Thermal Enthalpy correction       ...      0.00094421 Eh       0.59 kcal/mol
-----------------------------------------------------------------------
Total Enthalpy                    ...    -39.78050018 Eh

Note: Rotational entropy computed according to Herzberg
Infrared and Raman Spectra, Chapter V,1, Van Nostrand Reinhold, 1945
Point Group:  C3v, Symmetry Number:   3
Rotational constants in cm-1:     8.349862     8.349424     5.729708

Vibrational entropy computed according to the QRRHO of S. Grimme
Chem.Eur.J. 2012 18 9955

-------
ENTROPY
-------

The entropy contributions are T*S = T*(S(el)+S(vib)+S(rot)+S(trans))
     S(el)   - electronic entropy
     S(vib)  - vibrational entropy
     S(rot)  - rotational entropy
     S(trans)- translational entropy
The entropies will be listed as multiplied by the temperature to get
units of energy

Electronic entropy                ...      0.00065446 Eh      0.41 kcal/mol
Vibrational entropy               ...      0.00003102 Eh      0.02 kcal/mol
Rotational entropy                ...      0.00564565 Eh      3.54 kcal/mol
Translational entropy             ...      0.01618771 Eh     10.16 kcal/mol
-----------------------------------------------------------------------
Final entropy term                ...      0.02251884 Eh     14.13 kcal/mol

In case the symmetry of your molecule has not been determined correctly
or in case you have a reason to use a different symmetry number we print
out the resulting rotational entropy values for sn=1,12 :
 --------------------------------------------------------
|  sn= 1 | S(rot)=       0.00668294 Eh      4.19 kcal/mol|
|  sn= 2 | S(rot)=       0.00602848 Eh      3.78 kcal/mol|
|  sn= 3 | S(rot)=       0.00564565 Eh      3.54 kcal/mol|
|  sn= 4 | S(rot)=       0.00537403 Eh      3.37 kcal/mol|
|  sn= 5 | S(rot)=       0.00516334 Eh      3.24 kcal/mol|
|  sn= 6 | S(rot)=       0.00499119 Eh      3.13 kcal/mol|
|  sn= 7 | S(rot)=       0.00484565 Eh      3.04 kcal/mol|
|  sn= 8 | S(rot)=       0.00471957 Eh      2.96 kcal/mol|
|  sn= 9 | S(rot)=       0.00460836 Eh      2.89 kcal/mol|
|  sn=10 | S(rot)=       0.00450888 Eh      2.83 kcal/mol|
|  sn=11 | S(rot)=       0.00441889 Eh      2.77 kcal/mol|
|  sn=12 | S(rot)=       0.00433674 Eh      2.72 kcal/mol|
 --------------------------------------------------------

-------------------
GIBBS FREE ENERGY
-------------------

The Gibbs free energy is G = H - T*S

Total enthalpy                    ...    -39.78050018 Eh
Total entropy correction          ...     -0.02251884 Eh    -14.13 kcal/mol
-----------------------------------------------------------------------
Final Gibbs free energy         ...    -39.80301902 Eh

For completeness - the Gibbs free energy minus the electronic energy
G-E(el)                           ...      0.01174271 Eh      7.37 kcal/mol

                             ****ORCA TERMINATED NORMALLY****
TOTAL RUN TIME: 0 days 0 hours 1 minutes 11 seconds 61 msec
