                         Program Version 5.0.4 -  RELEASE  -
|  1> ! UKS TightSCF wB97x-D3 def2-TZVPD xyzfile opt freq
|  2>
|  3> # CH3 radical 112.0 degrees fixed
|  4>
|  5> %maxcore 1000
|  6> %pal
|  7> nprocs 18
|  8> end
|  9>
| 10> %geom Constraints
| 11>         { A * 0 * C }
| 12>     end
| 13> end
| 14> * xyz 0 2
| 15> C 0.00 0.00 0.00
| 16> H 1.0338733419 0.0000000000 -0.3122593681
| 17> H -0.5169366709 0.8953605784 -0.3122593681
| 18> H -0.5169366709 -0.8953605784 -0.3122593681
| 19> **                         ****END OF INPUT****
 Total Charge           Charge          ....    0
 Multiplicity           Mult            ....    2
 Number of Electrons    NEL             ....    9
Dispersion correction           -0.000013063
FINAL SINGLE POINT ENERGY       -39.832007200786
Dispersion correction            ... done
Dispersion correction           -0.000013746
FINAL SINGLE POINT ENERGY       -39.832104185725
Dispersion correction            ... done
                    ***********************HURRAY********************

CARTESIAN COORDINATES (ANGSTROEM)
---------------------------------
  C     -0.000003   -0.000000    0.001531
  H      1.040636   -0.000000   -0.312770
  H     -0.520317    0.901211   -0.312769
  H     -0.520317   -0.901211   -0.312769

 Multiplicity           Mult            ....    2
 Number of Electrons    NEL             ....    9
 Basis Dimension        Dim             ....   64

ORBITAL ENERGIES
----------------
                 SPIN UP ORBITALS
  NO   OCC          E(Eh)            E(eV)
   0   1.0000     -10.291567      -280.0478
   1   1.0000      -0.806448       -21.9446
   2   1.0000      -0.510210       -13.8835
   3   1.0000      -0.510184       -13.8828
   4   1.0000      -0.351458        -9.5637
   5   0.0000       0.075976         2.0674
   6   0.0000       0.161096         4.3836
   7   0.0000       0.161107         4.3839
   8   0.0000       0.197770         5.3816
   9   0.0000       0.197780         5.3819

                 SPIN DOWN ORBITALS
  NO   OCC          E(Eh)            E(eV)
   0   1.0000     -10.280885      -279.7571
   1   1.0000      -0.765264       -20.8239
   2   1.0000      -0.496453       -13.5092
   3   1.0000      -0.496380       -13.5072
   4   0.0000      -0.006698        -0.1823
   5   0.0000       0.085450         2.3252
   6   0.0000       0.165680         4.5084
   7   0.0000       0.165695         4.5088
   8   0.0000       0.200283         5.4500

MULLIKEN ATOMIC CHARGES AND SPIN POPULATIONS
--------------------------------------------
   0 C :   -0.708365    0.890793
   1 H :    0.235914    0.036369
   2 H :    0.236224    0.036419
   3 H :    0.236227    0.036419
Sum of atomic charges         :   -0.0000000

LOEWDIN ATOMIC CHARGES AND SPIN POPULATIONS
-------------------------------------------
   0 C :    0.053617    0.835807
   1 H :   -0.017879    0.054747
   2 H :   -0.017869    0.054723
   3 H :   -0.017869    0.054723

  Mayer bond orders larger than 0.100000
B(  0-C ,  1-H ) :   0.9801 B(  0-C ,  2-H ) :   0.9797 B(  0-C ,  3-H ) :   0.9796

Dispersion correction           -0.000013762
FINAL SINGLE POINT ENERGY       -39.832104234883

DIPOLE MOMENT
-------------
                                X             Y             Z
Electronic contribution:      0.00019       0.00000       0.48175
Nuclear contribution   :      0.00001       0.00000      -0.70669
                        -----------------------------------------
Total Dipole Moment    :      0.00020       0.00000      -0.22493
                        -----------------------------------------
Magnitude (a.u.)       :      0.22493
Magnitude (Debye)      :      0.57173

Dispersion correction in the Hessian             ... done   (      0.1 sec)

VIBRATIONAL FREQUENCIES
-----------------------

Scaling factor for frequencies =  1.000000000  (already applied!)

   0:         0.00 cm**-1
   1:         0.00 cm**-1
   2:         0.00 cm**-1
   3:         0.00 cm**-1
   4:         0.00 cm**-1
   5:         0.00 cm**-1
   6:      1067.78 cm**-1
   7:      1420.36 cm**-1
   8:      1423.76 cm**-1
   9:      3089.34 cm**-1
  10:      3218.73 cm**-1
  11:      3218.91 cm**-1

IR SPECTRUM
-----------

 Mode   freq       eps      Int      T**2         TX        TY        TZ
       cm**-1   L/(mol*cm) km/mol    a.u.
----------------------------------------------------------------------------
  6:   1067.78   0.005367   27.12  0.001568  (-0.000091  0.000000  0.039603)
  7:   1420.36   0.000600    3.03  0.000132  ( 0.011477 -0.000000  0.000180)
  8:   1423.76   0.000599    3.03  0.000131  (-0.000000 -0.011460  0.000000)
  9:   3089.34   0.000013    0.07  0.000001  ( 0.000014 -0.000000 -0.001165)
 10:   3218.73   0.003261   16.48  0.000316  (-0.017781  0.000002  0.000017)
 11:   3218.91   0.003294   16.64  0.000319  (-0.000002 -0.017869  0.000000)

--------------------------
THERMOCHEMISTRY AT 298.15K
--------------------------

Temperature         ... 298.15 K
Pressure            ... 1.00 atm
Total Mass          ... 15.03 AMU

Throughout the following assumptions are being made:
  (1) The electronic state is orbitally nondegenerate
      but the spin degeneracy is treated
  (2) There are no thermally accessible electronically excited states
  (3) Hindered rotations indicated by low frequency modes are not
      treated as such but are treated as vibrations and this may
      cause some error
  (4) All equations used are the standard statistical mechanics
      equations for an ideal gas
  (5) All vibrations are strictly harmonic

freq.    1067.78  E(vib)   ...       0.02
freq.    1420.36  E(vib)   ...       0.00
freq.    1423.76  E(vib)   ...       0.00
freq.    3089.34  E(vib)   ...       0.00
freq.    3218.73  E(vib)   ...       0.00
freq.    3218.91  E(vib)   ...       0.00

------------
INNER ENERGY
------------

The inner energy is: U= E(el) + E(ZPE) + E(vib) + E(rot) + E(trans)
    E(el)   - is the total energy from the electronic structure calculation
              = E(kin-el) + E(nuc-el) + E(el-el) + E(nuc-nuc)
    E(ZPE)  - the the zero temperature vibrational energy from the frequency calculation
    E(vib)  - the the finite temperature correction to E(ZPE) due to population
              of excited vibrational states
    E(rot)  - is the rotational thermal energy
    E(trans)- is the translational thermal energy

Summary of contributions to the inner energy U:
Electronic energy                ...    -39.83210423 Eh
Zero point energy                ...      0.03061603 Eh      19.21 kcal/mol
Thermal vibrational correction   ...      0.00004189 Eh       0.03 kcal/mol
Thermal rotational correction    ...      0.00141627 Eh       0.89 kcal/mol
Thermal translational correction ...      0.00141627 Eh       0.89 kcal/mol
-----------------------------------------------------------------------
Total thermal energy                    -39.79861377 Eh

Summary of corrections to the electronic energy:
(perhaps to be used in another calculation)
Total thermal correction                  0.00287443 Eh       1.80 kcal/mol
Non-thermal (ZPE) correction              0.03061603 Eh      19.21 kcal/mol
-----------------------------------------------------------------------
Total correction                          0.03349046 Eh      21.02 kcal/mol

--------
ENTHALPY
--------

The enthalpy is H = U + kB*T
                kB is Boltzmann's constant
Total free energy                 ...    -39.79861377 Eh
Thermal Enthalpy correction       ...      0.00094421 Eh       0.59 kcal/mol
-----------------------------------------------------------------------
Total Enthalpy                    ...    -39.79766956 Eh

Note: Rotational entropy computed according to Herzberg
Infrared and Raman Spectra, Chapter V,1, Van Nostrand Reinhold, 1945
Point Group:  C3v, Symmetry Number:   3
Rotational constants in cm-1:     8.985950     8.985858     5.147790

Vibrational entropy computed according to the QRRHO of S. Grimme
Chem.Eur.J. 2012 18 9955

-------
ENTROPY
-------

The entropy contributions are T*S = T*(S(el)+S(vib)+S(rot)+S(trans))
     S(el)   - electronic entropy
     S(vib)  - vibrational entropy
     S(rot)  - rotational entropy
     S(trans)- translational entropy
The entropies will be listed as multiplied by the temperature to get
units of energy

Electronic entropy                ...      0.00065446 Eh      0.41 kcal/mol
Vibrational entropy               ...      0.00004936 Eh      0.03 kcal/mol
Rotational entropy                ...      0.00562687 Eh      3.53 kcal/mol
Translational entropy             ...      0.01618771 Eh     10.16 kcal/mol
-----------------------------------------------------------------------
Final entropy term                ...      0.02251840 Eh     14.13 kcal/mol

In case the symmetry of your molecule has not been determined correctly
or in case you have a reason to use a different symmetry number we print
out the resulting rotational entropy values for sn=1,12 :
 --------------------------------------------------------
|  sn= 1 | S(rot)=       0.00666416 Eh      4.18 kcal/mol|
|  sn= 2 | S(rot)=       0.00600970 Eh      3.77 kcal/mol|
|  sn= 3 | S(rot)=       0.00562687 Eh      3.53 kcal/mol|
|  sn= 4 | S(rot)=       0.00535525 Eh      3.36 kcal/mol|
|  sn= 5 | S(rot)=       0.00514456 Eh      3.23 kcal/mol|
|  sn= 6 | S(rot)=       0.00497242 Eh      3.12 kcal/mol|
|  sn= 7 | S(rot)=       0.00482687 Eh      3.03 kcal/mol|
|  sn= 8 | S(rot)=       0.00470079 Eh      2.95 kcal/mol|
|  sn= 9 | S(rot)=       0.00458958 Eh      2.88 kcal/mol|
|  sn=10 | S(rot)=       0.00449010 Eh      2.82 kcal/mol|
|  sn=11 | S(rot)=       0.00440011 Eh      2.76 kcal/mol|
|  sn=12 | S(rot)=       0.00431796 Eh      2.71 kcal/mol|
 --------------------------------------------------------

-------------------
GIBBS FREE ENERGY
-------------------

The Gibbs free energy is G = H - T*S

Total enthalpy                    ...    -39.79766956 Eh
Total entropy correction          ...     -0.02251840 Eh    -14.13 kcal/mol
-----------------------------------------------------------------------
Final Gibbs free energy         ...    -39.82018796 Eh

For completeness - the Gibbs free energy minus the electronic energy
G-E(el)                           ...      0.01191627 Eh      7.48 kcal/mol

                             ****ORCA TERMINATED NORMALLY****
TOTAL RUN TIME: 0 days 0 hours 0 minutes 55 seconds 235 msec
