                         Program Version 5.0.4 -  RELEASE  -
|  1> ! UKS TightSCF wB97x-D3 def2-TZVPD xyzfile opt freq
|  2>
|  3> # CH3 radical 96.0 degrees fixed
|  4>
|  5> %maxcore 1000
|  6> %pal
|  7> nprocs 18
|  8> end
|  9>
| 10> %geom Constraints
| 11>         { A * 0 * C }
| 12>     end
| 13> end
| 14> * xyz 0 2
| 15> C 0.00 0.00 0.00
| 16> H 0.9267585085 0.0000000000 -0.5545436565
| 17> H -0.4633792542 0.8025964115 -0.5545436565
| 18> H -0.4633792542 -0.8025964115 -0.5545436565
| 19> **                         ****END OF INPUT****
 Total Charge           Charge          ....    0
 Multiplicity           Mult            ....    2
 Number of Electrons    NEL             ....    9
Dispersion correction           -0.000005542
FINAL SINGLE POINT ENERGY       -39.796772507307
Dispersion correction            ... done
Dispersion correction           -0.000006415
FINAL SINGLE POINT ENERGY       -39.797598687719
Dispersion correction            ... done
Dispersion correction           -0.000006470
FINAL SINGLE POINT ENERGY       -39.797601512066
Dispersion correction            ... done
                    ***********************HURRAY********************

CARTESIAN COORDINATES (ANGSTROEM)
---------------------------------
  C      0.000010    0.000000    0.008137
  H      0.944878    0.000000   -0.557252
  H     -0.472444    0.818307   -0.557258
  H     -0.472444   -0.818307   -0.557258

 Multiplicity           Mult            ....    2
 Number of Electrons    NEL             ....    9
 Basis Dimension        Dim             ....   64

ORBITAL ENERGIES
----------------
                 SPIN UP ORBITALS
  NO   OCC          E(Eh)            E(eV)
   0   1.0000     -10.304033      -280.3870
   1   1.0000      -0.818849       -22.2820
   2   1.0000      -0.484660       -13.1883
   3   1.0000      -0.484641       -13.1877
   4   1.0000      -0.398373       -10.8403
   5   0.0000       0.073687         2.0051
   6   0.0000       0.159907         4.3513
   7   0.0000       0.159913         4.3514
   8   0.0000       0.169274         4.6062
   9   0.0000       0.193072         5.2538

                 SPIN DOWN ORBITALS
  NO   OCC          E(Eh)            E(eV)
   0   1.0000     -10.292067      -280.0614
   1   1.0000      -0.784286       -21.3415
   2   1.0000      -0.468725       -12.7547
   3   1.0000      -0.468719       -12.7545
   4   0.0000      -0.043834        -1.1928
   5   0.0000       0.081560         2.2194
   6   0.0000       0.165640         4.5073
   7   0.0000       0.165640         4.5073
   8   0.0000       0.200075         5.4443

MULLIKEN ATOMIC CHARGES AND SPIN POPULATIONS
--------------------------------------------
   0 C :   -0.656731    0.902429
   1 H :    0.218630    0.032572
   2 H :    0.219052    0.032500
   3 H :    0.219049    0.032500
Sum of atomic charges         :   -0.0000000

LOEWDIN ATOMIC CHARGES AND SPIN POPULATIONS
-------------------------------------------
   0 C :    0.039182    0.842217
   1 H :   -0.013093    0.052600
   2 H :   -0.013044    0.052592
   3 H :   -0.013044    0.052591

  Mayer bond orders larger than 0.100000
B(  0-C ,  1-H ) :   1.0238 B(  0-C ,  2-H ) :   1.0232 B(  0-C ,  3-H ) :   1.0232

Dispersion correction           -0.000006473
FINAL SINGLE POINT ENERGY       -39.797601524757

DIPOLE MOMENT
-------------
                                X             Y             Z
Electronic contribution:      0.00015      -0.00000       0.95398
Nuclear contribution   :     -0.00003      -0.00000      -1.27125
                        -----------------------------------------
Total Dipole Moment    :      0.00012      -0.00000      -0.31728
                        -----------------------------------------
Magnitude (a.u.)       :      0.31728
Magnitude (Debye)      :      0.80646

Dispersion correction in the Hessian             ... done   (      0.1 sec)

VIBRATIONAL FREQUENCIES
-----------------------

Scaling factor for frequencies =  1.000000000  (already applied!)

   0:         0.00 cm**-1
   1:         0.00 cm**-1
   2:         0.00 cm**-1
   3:         0.00 cm**-1
   4:         0.00 cm**-1
   5:         0.00 cm**-1
   6:      1367.23 cm**-1
   7:      1374.42 cm**-1
   8:      1375.67 cm**-1
   9:      3035.83 cm**-1
  10:      3042.98 cm**-1
  11:      3043.14 cm**-1

IR SPECTRUM
-----------

 Mode   freq       eps      Int      T**2         TX        TY        TZ
       cm**-1   L/(mol*cm) km/mol    a.u.
----------------------------------------------------------------------------
  6:   1367.23   0.001261    6.37  0.000288  (-0.003525 -0.000000  0.016595)
  7:   1374.42   0.001155    5.84  0.000262  ( 0.000001 -0.016192 -0.000000)
  8:   1375.67   0.001186    5.99  0.000269  (-0.016026 -0.000001 -0.003501)
  9:   3035.83   0.000019    0.09  0.000002  (-0.000701  0.000000  0.001193)
 10:   3042.98   0.008539   43.15  0.000876  ( 0.029593  0.000005  0.000056)
 11:   3043.14   0.008710   44.02  0.000893  (-0.000005  0.029886 -0.000000)

--------------------------
THERMOCHEMISTRY AT 298.15K
--------------------------

Temperature         ... 298.15 K
Pressure            ... 1.00 atm
Total Mass          ... 15.03 AMU

Throughout the following assumptions are being made:
  (1) The electronic state is orbitally nondegenerate
      but the spin degeneracy is treated
  (2) There are no thermally accessible electronically excited states
  (3) Hindered rotations indicated by low frequency modes are not
      treated as such but are treated as vibrations and this may
      cause some error
  (4) All equations used are the standard statistical mechanics
      equations for an ideal gas
  (5) All vibrations are strictly harmonic

freq.    1367.23  E(vib)   ...       0.01
freq.    1374.42  E(vib)   ...       0.01
freq.    1375.67  E(vib)   ...       0.01
freq.    3035.83  E(vib)   ...       0.00
freq.    3042.98  E(vib)   ...       0.00
freq.    3043.14  E(vib)   ...       0.00

------------
INNER ENERGY
------------

The inner energy is: U= E(el) + E(ZPE) + E(vib) + E(rot) + E(trans)
    E(el)   - is the total energy from the electronic structure calculation
              = E(kin-el) + E(nuc-el) + E(el-el) + E(nuc-nuc)
    E(ZPE)  - the the zero temperature vibrational energy from the frequency calculation
    E(vib)  - the the finite temperature correction to E(ZPE) due to population
              of excited vibrational states
    E(rot)  - is the rotational thermal energy
    E(trans)- is the translational thermal energy

Summary of contributions to the inner energy U:
Electronic energy                ...    -39.79760152 Eh
Zero point energy                ...      0.03016127 Eh      18.93 kcal/mol
Thermal vibrational correction   ...      0.00002500 Eh       0.02 kcal/mol
Thermal rotational correction    ...      0.00141627 Eh       0.89 kcal/mol
Thermal translational correction ...      0.00141627 Eh       0.89 kcal/mol
-----------------------------------------------------------------------
Total thermal energy                    -39.76458271 Eh

Summary of corrections to the electronic energy:
(perhaps to be used in another calculation)
Total thermal correction                  0.00285754 Eh       1.79 kcal/mol
Non-thermal (ZPE) correction              0.03016127 Eh      18.93 kcal/mol
-----------------------------------------------------------------------
Total correction                          0.03301881 Eh      20.72 kcal/mol

--------
ENTHALPY
--------

The enthalpy is H = U + kB*T
                kB is Boltzmann's constant
Total free energy                 ...    -39.76458271 Eh
Thermal Enthalpy correction       ...      0.00094421 Eh       0.59 kcal/mol
-----------------------------------------------------------------------
Total Enthalpy                    ...    -39.76363850 Eh

Note: Rotational entropy computed according to Herzberg
Infrared and Raman Spectra, Chapter V,1, Van Nostrand Reinhold, 1945
Point Group:  C3v, Symmetry Number:   3
Rotational constants in cm-1:     7.943597     7.943404     6.243843

Vibrational entropy computed according to the QRRHO of S. Grimme
Chem.Eur.J. 2012 18 9955

-------
ENTROPY
-------

The entropy contributions are T*S = T*(S(el)+S(vib)+S(rot)+S(trans))
     S(el)   - electronic entropy
     S(vib)  - vibrational entropy
     S(rot)  - rotational entropy
     S(trans)- translational entropy
The entropies will be listed as multiplied by the temperature to get
units of energy

Electronic entropy                ...      0.00065446 Eh      0.41 kcal/mol
Vibrational entropy               ...      0.00002878 Eh      0.02 kcal/mol
Rotational entropy                ...      0.00565217 Eh      3.55 kcal/mol
Translational entropy             ...      0.01618771 Eh     10.16 kcal/mol
-----------------------------------------------------------------------
Final entropy term                ...      0.02252310 Eh     14.13 kcal/mol

In case the symmetry of your molecule has not been determined correctly
or in case you have a reason to use a different symmetry number we print
out the resulting rotational entropy values for sn=1,12 :
 --------------------------------------------------------
|  sn= 1 | S(rot)=       0.00668945 Eh      4.20 kcal/mol|
|  sn= 2 | S(rot)=       0.00603500 Eh      3.79 kcal/mol|
|  sn= 3 | S(rot)=       0.00565217 Eh      3.55 kcal/mol|
|  sn= 4 | S(rot)=       0.00538054 Eh      3.38 kcal/mol|
|  sn= 5 | S(rot)=       0.00516985 Eh      3.24 kcal/mol|
|  sn= 6 | S(rot)=       0.00499771 Eh      3.14 kcal/mol|
|  sn= 7 | S(rot)=       0.00485216 Eh      3.04 kcal/mol|
|  sn= 8 | S(rot)=       0.00472608 Eh      2.97 kcal/mol|
|  sn= 9 | S(rot)=       0.00461488 Eh      2.90 kcal/mol|
|  sn=10 | S(rot)=       0.00451540 Eh      2.83 kcal/mol|
|  sn=11 | S(rot)=       0.00442541 Eh      2.78 kcal/mol|
|  sn=12 | S(rot)=       0.00434325 Eh      2.73 kcal/mol|
 --------------------------------------------------------

-------------------
GIBBS FREE ENERGY
-------------------

The Gibbs free energy is G = H - T*S

Total enthalpy                    ...    -39.76363850 Eh
Total entropy correction          ...     -0.02252310 Eh    -14.13 kcal/mol
-----------------------------------------------------------------------
Final Gibbs free energy         ...    -39.78616161 Eh

For completeness - the Gibbs free energy minus the electronic energy
G-E(el)                           ...      0.01143992 Eh      7.18 kcal/mol

                             ****ORCA TERMINATED NORMALLY****
TOTAL RUN TIME: 0 days 0 hours 1 minutes 47 seconds 284 msec
