                         Program Version 5.0.4 -  RELEASE  -
|  1> ! UKS TightSCF wB97x-D3 def2-TZVPD xyzfile opt freq
|  2>
|  3> # CH3 radical 105.0 degrees fixed
|  4>
|  5> %maxcore 1000
|  6> %pal
|  7> nprocs 18
|  8> end
|  9>
| 10> %geom Constraints
| 11>         { A * 0 * C }
| 12>     end
| 13> end
| 14> * xyz 0 2
| 15> C 0.00 0.00 0.00
| 16> H 0.9893723715 0.0000000000 -0.4330615551
| 17> H -0.4946861857 0.8568216075 -0.4330615551
| 18> H -0.4946861857 -0.8568216075 -0.4330615551
| 19> **                         ****END OF INPUT****
 Total Charge           Charge          ....    0
 Multiplicity           Mult            ....    2
 Number of Electrons    NEL             ....    9
Dispersion correction           -0.000009240
FINAL SINGLE POINT ENERGY       -39.819881506518
Dispersion correction            ... done
Dispersion correction           -0.000010142
FINAL SINGLE POINT ENERGY       -39.820210298763
Dispersion correction            ... done
                    ***********************HURRAY********************

CARTESIAN COORDINATES (ANGSTROEM)
---------------------------------
  C      0.000019   -0.000000    0.003950
  H      1.001379   -0.000000   -0.434373
  H     -0.500699    0.867259   -0.434381
  H     -0.500699   -0.867259   -0.434381

 Multiplicity           Mult            ....    2
 Number of Electrons    NEL             ....    9
 Basis Dimension        Dim             ....   64

ORBITAL ENERGIES
----------------
                 SPIN UP ORBITALS
  NO   OCC          E(Eh)            E(eV)
   0   1.0000     -10.296861      -280.1918
   1   1.0000      -0.811053       -22.0699
   2   1.0000      -0.499523       -13.5927
   3   1.0000      -0.499481       -13.5916
   4   1.0000      -0.372441       -10.1346
   5   0.0000       0.075312         2.0494
   6   0.0000       0.160759         4.3745
   7   0.0000       0.160765         4.3746
   8   0.0000       0.186592         5.0774
   9   0.0000       0.194726         5.2988

                 SPIN DOWN ORBITALS
  NO   OCC          E(Eh)            E(eV)
   0   1.0000     -10.285621      -279.8860
   1   1.0000      -0.773054       -21.0359
   2   1.0000      -0.484727       -13.1901
   3   1.0000      -0.484703       -13.1894
   4   0.0000      -0.022748        -0.6190
   5   0.0000       0.084012         2.2861
   6   0.0000       0.165850         4.5130
   7   0.0000       0.165853         4.5131
   8   0.0000       0.199583         5.4309

MULLIKEN ATOMIC CHARGES AND SPIN POPULATIONS
--------------------------------------------
   0 C :   -0.682139    0.886673
   1 H :    0.227062    0.037718
   2 H :    0.227539    0.037805
   3 H :    0.227538    0.037805
Sum of atomic charges         :   -0.0000000

LOEWDIN ATOMIC CHARGES AND SPIN POPULATIONS
-------------------------------------------
   0 C :    0.047079    0.837822
   1 H :   -0.015748    0.054065
   2 H :   -0.015665    0.054057
   3 H :   -0.015665    0.054057

  Mayer bond orders larger than 0.100000
B(  0-C ,  1-H ) :   1.0023 B(  0-C ,  2-H ) :   1.0018 B(  0-C ,  3-H ) :   1.0018

Dispersion correction           -0.000010179
FINAL SINGLE POINT ENERGY       -39.820210790786

DIPOLE MOMENT
-------------
                                X             Y             Z
Electronic contribution:      0.00005      -0.00000       0.70777
Nuclear contribution   :     -0.00006       0.00000      -0.98555
                        -----------------------------------------
Total Dipole Moment    :     -0.00001      -0.00000      -0.27778
                        -----------------------------------------
Magnitude (a.u.)       :      0.27778
Magnitude (Debye)      :      0.70607

Dispersion correction in the Hessian             ... done   (      0.1 sec)

VIBRATIONAL FREQUENCIES
-----------------------

Scaling factor for frequencies =  1.000000000  (already applied!)

   0:         0.00 cm**-1
   1:         0.00 cm**-1
   2:         0.00 cm**-1
   3:         0.00 cm**-1
   4:         0.00 cm**-1
   5:         0.00 cm**-1
   6:      1234.78 cm**-1
   7:      1406.47 cm**-1
   8:      1409.35 cm**-1
   9:      3063.38 cm**-1
  10:      3142.02 cm**-1
  11:      3142.12 cm**-1

IR SPECTRUM
-----------

 Mode   freq       eps      Int      T**2         TX        TY        TZ
       cm**-1   L/(mol*cm) km/mol    a.u.
----------------------------------------------------------------------------
  6:   1234.78   0.002437   12.32  0.000616  (-0.000117 -0.000000 -0.024818)
  7:   1406.47   0.000750    3.79  0.000166  (-0.000000  0.012898 -0.000000)
  8:   1409.35   0.000738    3.73  0.000163  (-0.012781 -0.000000 -0.000130)
  9:   3063.38   0.000017    0.09  0.000002  ( 0.000043 -0.000000  0.001322)
 10:   3142.02   0.005698   28.79  0.000566  ( 0.000011 -0.023788  0.000000)
 11:   3142.12   0.005561   28.10  0.000552  (-0.023501 -0.000012 -0.000008)

--------------------------
THERMOCHEMISTRY AT 298.15K
--------------------------

Temperature         ... 298.15 K
Pressure            ... 1.00 atm
Total Mass          ... 15.03 AMU

Throughout the following assumptions are being made:
  (1) The electronic state is orbitally nondegenerate
      but the spin degeneracy is treated
  (2) There are no thermally accessible electronically excited states
  (3) Hindered rotations indicated by low frequency modes are not
      treated as such but are treated as vibrations and this may
      cause some error
  (4) All equations used are the standard statistical mechanics
      equations for an ideal gas
  (5) All vibrations are strictly harmonic

freq.    1234.78  E(vib)   ...       0.01
freq.    1406.47  E(vib)   ...       0.00
freq.    1409.35  E(vib)   ...       0.00
freq.    3063.38  E(vib)   ...       0.00
freq.    3142.02  E(vib)   ...       0.00
freq.    3142.12  E(vib)   ...       0.00

------------
INNER ENERGY
------------

The inner energy is: U= E(el) + E(ZPE) + E(vib) + E(rot) + E(trans)
    E(el)   - is the total energy from the electronic structure calculation
              = E(kin-el) + E(nuc-el) + E(el-el) + E(nuc-nuc)
    E(ZPE)  - the the zero temperature vibrational energy from the frequency calculation
    E(vib)  - the the finite temperature correction to E(ZPE) due to population
              of excited vibrational states
    E(rot)  - is the rotational thermal energy
    E(trans)- is the translational thermal energy

Summary of contributions to the inner energy U:
Electronic energy                ...    -39.82021079 Eh
Zero point energy                ...      0.03052314 Eh      19.15 kcal/mol
Thermal vibrational correction   ...      0.00002898 Eh       0.02 kcal/mol
Thermal rotational correction    ...      0.00141627 Eh       0.89 kcal/mol
Thermal translational correction ...      0.00141627 Eh       0.89 kcal/mol
-----------------------------------------------------------------------
Total thermal energy                    -39.78682613 Eh

Summary of corrections to the electronic energy:
(perhaps to be used in another calculation)
Total thermal correction                  0.00286152 Eh       1.80 kcal/mol
Non-thermal (ZPE) correction              0.03052314 Eh      19.15 kcal/mol
-----------------------------------------------------------------------
Total correction                          0.03338466 Eh      20.95 kcal/mol

--------
ENTHALPY
--------

The enthalpy is H = U + kB*T
                kB is Boltzmann's constant
Total free energy                 ...    -39.78682613 Eh
Thermal Enthalpy correction       ...      0.00094421 Eh       0.59 kcal/mol
-----------------------------------------------------------------------
Total Enthalpy                    ...    -39.78588192 Eh

Note: Rotational entropy computed according to Herzberg
Infrared and Raman Spectra, Chapter V,1, Van Nostrand Reinhold, 1945
Point Group:  C3v, Symmetry Number:   3
Rotational constants in cm-1:     8.512507     8.511998     5.558993

Vibrational entropy computed according to the QRRHO of S. Grimme
Chem.Eur.J. 2012 18 9955

-------
ENTROPY
-------

The entropy contributions are T*S = T*(S(el)+S(vib)+S(rot)+S(trans))
     S(el)   - electronic entropy
     S(vib)  - vibrational entropy
     S(rot)  - rotational entropy
     S(trans)- translational entropy
The entropies will be listed as multiplied by the temperature to get
units of energy

Electronic entropy                ...      0.00065446 Eh      0.41 kcal/mol
Vibrational entropy               ...      0.00003355 Eh      0.02 kcal/mol
Rotational entropy                ...      0.00564172 Eh      3.54 kcal/mol
Translational entropy             ...      0.01618771 Eh     10.16 kcal/mol
-----------------------------------------------------------------------
Final entropy term                ...      0.02251743 Eh     14.13 kcal/mol

In case the symmetry of your molecule has not been determined correctly
or in case you have a reason to use a different symmetry number we print
out the resulting rotational entropy values for sn=1,12 :
 --------------------------------------------------------
|  sn= 1 | S(rot)=       0.00667901 Eh      4.19 kcal/mol|
|  sn= 2 | S(rot)=       0.00602455 Eh      3.78 kcal/mol|
|  sn= 3 | S(rot)=       0.00564172 Eh      3.54 kcal/mol|
|  sn= 4 | S(rot)=       0.00537010 Eh      3.37 kcal/mol|
|  sn= 5 | S(rot)=       0.00515941 Eh      3.24 kcal/mol|
|  sn= 6 | S(rot)=       0.00498726 Eh      3.13 kcal/mol|
|  sn= 7 | S(rot)=       0.00484172 Eh      3.04 kcal/mol|
|  sn= 8 | S(rot)=       0.00471564 Eh      2.96 kcal/mol|
|  sn= 9 | S(rot)=       0.00460443 Eh      2.89 kcal/mol|
|  sn=10 | S(rot)=       0.00450495 Eh      2.83 kcal/mol|
|  sn=11 | S(rot)=       0.00441496 Eh      2.77 kcal/mol|
|  sn=12 | S(rot)=       0.00433281 Eh      2.72 kcal/mol|
 --------------------------------------------------------

-------------------
GIBBS FREE ENERGY
-------------------

The Gibbs free energy is G = H - T*S

Total enthalpy                    ...    -39.78588192 Eh
Total entropy correction          ...     -0.02251743 Eh    -14.13 kcal/mol
-----------------------------------------------------------------------
Final Gibbs free energy         ...    -39.80839935 Eh

For completeness - the Gibbs free energy minus the electronic energy
G-E(el)                           ...      0.01181144 Eh      7.41 kcal/mol

                             ****ORCA TERMINATED NORMALLY****
TOTAL RUN TIME: 0 days 0 hours 1 minutes 23 seconds 415 msec
