                         Program Version 5.0.4 -  RELEASE  -
|  1> ! UKS TightSCF wB97x-D3 def2-TZVPD xyzfile opt freq
|  2>
|  3> # CH3 radical 108.5 degrees fixed
|  4>
|  5> %maxcore 1000
|  6> %pal
|  7> nprocs 18
|  8> end
|  9>
| 10> %geom Constraints
| 11>         { A * 0 * C }
| 12>     end
| 13> end
| 14> * xyz 0 2
| 15> C 0.00 0.00 0.00
| 16> H 1.0120949070 0.0000000000 -0.3769136495
| 17> H -0.5060474535 0.8764999005 -0.3769136495
| 18> H -0.5060474535 -0.8764999005 -0.3769136495
| 19> **                         ****END OF INPUT****
 Total Charge           Charge          ....    0
 Multiplicity           Mult            ....    2
 Number of Electrons    NEL             ....    9
Dispersion correction           -0.000011046
FINAL SINGLE POINT ENERGY       -39.826580586624
Dispersion correction            ... done
Dispersion correction           -0.000011876
FINAL SINGLE POINT ENERGY       -39.826777703001
Dispersion correction            ... done
                    ***********************HURRAY********************

CARTESIAN COORDINATES (ANGSTROEM)
---------------------------------
  C      0.000009   -0.000000    0.002649
  H      1.021566   -0.000000   -0.377794
  H     -0.510787    0.884721   -0.377798
  H     -0.510787   -0.884721   -0.377798

 Multiplicity           Mult            ....    2
 Number of Electrons    NEL             ....    9
 Basis Dimension        Dim             ....   64

ORBITAL ENERGIES
----------------
                 SPIN UP ORBITALS
  NO   OCC          E(Eh)            E(eV)
   0   1.0000     -10.294213      -280.1198
   1   1.0000      -0.808617       -22.0036
   2   1.0000      -0.504971       -13.7410
   3   1.0000      -0.504942       -13.7402
   4   1.0000      -0.362040        -9.8516
   5   0.0000       0.075694         2.0597
   6   0.0000       0.160955         4.3798
   7   0.0000       0.160963         4.3800
   8   0.0000       0.194116         5.2822
   9   0.0000       0.195967         5.3325

                 SPIN DOWN ORBITALS
  NO   OCC          E(Eh)            E(eV)
   0   1.0000     -10.283252      -279.8215
   1   1.0000      -0.769085       -20.9279
   2   1.0000      -0.490690       -13.3524
   3   1.0000      -0.490629       -13.3507
   4   0.0000      -0.014648        -0.3986
   5   0.0000       0.084779         2.3070
   6   0.0000       0.165812         4.5120
   7   0.0000       0.165819         4.5122
   8   0.0000       0.199703         5.4342

MULLIKEN ATOMIC CHARGES AND SPIN POPULATIONS
--------------------------------------------
   0 C :   -0.694669    0.886191
   1 H :    0.231289    0.037892
   2 H :    0.231689    0.037958
   3 H :    0.231692    0.037959
Sum of atomic charges         :   -0.0000000

LOEWDIN ATOMIC CHARGES AND SPIN POPULATIONS
-------------------------------------------
   0 C :    0.050342    0.836625
   1 H :   -0.016815    0.054469
   2 H :   -0.016764    0.054453
   3 H :   -0.016764    0.054453

  Mayer bond orders larger than 0.100000
B(  0-C ,  1-H ) :   0.9920 B(  0-C ,  2-H ) :   0.9914 B(  0-C ,  3-H ) :   0.9914

Dispersion correction           -0.000011902
FINAL SINGLE POINT ENERGY       -39.826777890817

DIPOLE MOMENT
-------------
                                X             Y             Z
Electronic contribution:      0.00013      -0.00000       0.59993
Nuclear contribution   :     -0.00003       0.00000      -0.85541
                        -----------------------------------------
Total Dipole Moment    :      0.00011      -0.00000      -0.25548
                        -----------------------------------------
Magnitude (a.u.)       :      0.25548
Magnitude (Debye)      :      0.64937

Dispersion correction in the Hessian             ... done   (      0.1 sec)

VIBRATIONAL FREQUENCIES
-----------------------

Scaling factor for frequencies =  1.000000000  (already applied!)

   0:         0.00 cm**-1
   1:         0.00 cm**-1
   2:         0.00 cm**-1
   3:         0.00 cm**-1
   4:         0.00 cm**-1
   5:         0.00 cm**-1
   6:      1161.84 cm**-1
   7:      1415.05 cm**-1
   8:      1416.57 cm**-1
   9:      3075.42 cm**-1
  10:      3179.99 cm**-1
  11:      3180.11 cm**-1

IR SPECTRUM
-----------

 Mode   freq       eps      Int      T**2         TX        TY        TZ
       cm**-1   L/(mol*cm) km/mol    a.u.
----------------------------------------------------------------------------
  6:   1161.84   0.003524   17.81  0.000947  (-0.000037  0.000000  0.030768)
  7:   1415.05   0.000659    3.33  0.000145  (-0.000000  0.012057 -0.000000)
  8:   1416.57   0.000647    3.27  0.000142  (-0.011929 -0.000000 -0.000420)
  9:   3075.42   0.000016    0.08  0.000002  (-0.000050  0.000000 -0.001291)
 10:   3179.99   0.004494   22.71  0.000441  (-0.000026  0.021000  0.000000)
 11:   3180.11   0.004406   22.27  0.000432  ( 0.020794  0.000027 -0.000025)

--------------------------
THERMOCHEMISTRY AT 298.15K
--------------------------

Temperature         ... 298.15 K
Pressure            ... 1.00 atm
Total Mass          ... 15.03 AMU

Throughout the following assumptions are being made:
  (1) The electronic state is orbitally nondegenerate
      but the spin degeneracy is treated
  (2) There are no thermally accessible electronically excited states
  (3) Hindered rotations indicated by low frequency modes are not
      treated as such but are treated as vibrations and this may
      cause some error
  (4) All equations used are the standard statistical mechanics
      equations for an ideal gas
  (5) All vibrations are strictly harmonic

freq.    1161.84  E(vib)   ...       0.01
freq.    1415.05  E(vib)   ...       0.00
freq.    1416.57  E(vib)   ...       0.00
freq.    3075.42  E(vib)   ...       0.00
freq.    3179.99  E(vib)   ...       0.00
freq.    3180.11  E(vib)   ...       0.00

------------
INNER ENERGY
------------

The inner energy is: U= E(el) + E(ZPE) + E(vib) + E(rot) + E(trans)
    E(el)   - is the total energy from the electronic structure calculation
              = E(kin-el) + E(nuc-el) + E(el-el) + E(nuc-nuc)
    E(ZPE)  - the the zero temperature vibrational energy from the frequency calculation
    E(vib)  - the the finite temperature correction to E(ZPE) due to population
              of excited vibrational states
    E(rot)  - is the rotational thermal energy
    E(trans)- is the translational thermal energy

Summary of contributions to the inner energy U:
Electronic energy                ...    -39.82677789 Eh
Zero point energy                ...      0.03059349 Eh      19.20 kcal/mol
Thermal vibrational correction   ...      0.00003346 Eh       0.02 kcal/mol
Thermal rotational correction    ...      0.00141627 Eh       0.89 kcal/mol
Thermal translational correction ...      0.00141627 Eh       0.89 kcal/mol
-----------------------------------------------------------------------
Total thermal energy                    -39.79331840 Eh

Summary of corrections to the electronic energy:
(perhaps to be used in another calculation)
Total thermal correction                  0.00286601 Eh       1.80 kcal/mol
Non-thermal (ZPE) correction              0.03059349 Eh      19.20 kcal/mol
-----------------------------------------------------------------------
Total correction                          0.03345949 Eh      21.00 kcal/mol

--------
ENTHALPY
--------

The enthalpy is H = U + kB*T
                kB is Boltzmann's constant
Total free energy                 ...    -39.79331840 Eh
Thermal Enthalpy correction       ...      0.00094421 Eh       0.59 kcal/mol
-----------------------------------------------------------------------
Total Enthalpy                    ...    -39.79237419 Eh

Note: Rotational entropy computed according to Herzberg
Infrared and Raman Spectra, Chapter V,1, Van Nostrand Reinhold, 1945
Point Group:  C3v, Symmetry Number:   3
Rotational constants in cm-1:     8.745484     8.745216     5.341609

Vibrational entropy computed according to the QRRHO of S. Grimme
Chem.Eur.J. 2012 18 9955

-------
ENTROPY
-------

The entropy contributions are T*S = T*(S(el)+S(vib)+S(rot)+S(trans))
     S(el)   - electronic entropy
     S(vib)  - vibrational entropy
     S(rot)  - rotational entropy
     S(trans)- translational entropy
The entropies will be listed as multiplied by the temperature to get
units of energy

Electronic entropy                ...      0.00065446 Eh      0.41 kcal/mol
Vibrational entropy               ...      0.00003899 Eh      0.02 kcal/mol
Rotational entropy                ...      0.00563504 Eh      3.54 kcal/mol
Translational entropy             ...      0.01618771 Eh     10.16 kcal/mol
-----------------------------------------------------------------------
Final entropy term                ...      0.02251619 Eh     14.13 kcal/mol

In case the symmetry of your molecule has not been determined correctly
or in case you have a reason to use a different symmetry number we print
out the resulting rotational entropy values for sn=1,12 :
 --------------------------------------------------------
|  sn= 1 | S(rot)=       0.00667233 Eh      4.19 kcal/mol|
|  sn= 2 | S(rot)=       0.00601788 Eh      3.78 kcal/mol|
|  sn= 3 | S(rot)=       0.00563504 Eh      3.54 kcal/mol|
|  sn= 4 | S(rot)=       0.00536342 Eh      3.37 kcal/mol|
|  sn= 5 | S(rot)=       0.00515273 Eh      3.23 kcal/mol|
|  sn= 6 | S(rot)=       0.00498059 Eh      3.13 kcal/mol|
|  sn= 7 | S(rot)=       0.00483504 Eh      3.03 kcal/mol|
|  sn= 8 | S(rot)=       0.00470896 Eh      2.95 kcal/mol|
|  sn= 9 | S(rot)=       0.00459776 Eh      2.89 kcal/mol|
|  sn=10 | S(rot)=       0.00449828 Eh      2.82 kcal/mol|
|  sn=11 | S(rot)=       0.00440829 Eh      2.77 kcal/mol|
|  sn=12 | S(rot)=       0.00432613 Eh      2.71 kcal/mol|
 --------------------------------------------------------

-------------------
GIBBS FREE ENERGY
-------------------

The Gibbs free energy is G = H - T*S

Total enthalpy                    ...    -39.79237419 Eh
Total entropy correction          ...     -0.02251619 Eh    -14.13 kcal/mol
-----------------------------------------------------------------------
Final Gibbs free energy         ...    -39.81489039 Eh

For completeness - the Gibbs free energy minus the electronic energy
G-E(el)                           ...      0.01188750 Eh      7.46 kcal/mol

                             ****ORCA TERMINATED NORMALLY****
TOTAL RUN TIME: 0 days 0 hours 0 minutes 53 seconds 836 msec
