                         Program Version 5.0.4 -  RELEASE  -
|  1> ! UKS TightSCF wB97x-D3 def2-TZVPD xyzfile opt freq
|  2>
|  3> # CH3 radical 116.0 degrees fixed
|  4>
|  5> %maxcore 1000
|  6> %pal
|  7> nprocs 18
|  8> end
|  9>
| 10> %geom Constraints
| 11>         { A * 0 * C }
| 12>     end
| 13> end
| 14> * xyz 0 2
| 15> C 0.00 0.00 0.00
| 16> H 1.0575809207 0.0000000000 -0.2189123027
| 17> H -0.5287904603 0.9158919438 -0.2189123027
| 18> H -0.5287904603 -0.9158919438 -0.2189123027
| 19> **                         ****END OF INPUT****
 Total Charge           Charge          ....    0
 Multiplicity           Mult            ....    2
 Number of Electrons    NEL             ....    9
Dispersion correction           -0.000015621
FINAL SINGLE POINT ENERGY       -39.836639749244
Dispersion correction            ... done
Dispersion correction           -0.000016014
FINAL SINGLE POINT ENERGY       -39.836662685120
Dispersion correction            ... done
                    ***********************HURRAY********************

CARTESIAN COORDINATES (ANGSTROEM)
---------------------------------
  C     -0.000007    0.000000    0.000518
  H      1.060928    0.000000   -0.219086
  H     -0.530461    0.918774   -0.219084
  H     -0.530461   -0.918774   -0.219084

 Multiplicity           Mult            ....    2
 Number of Electrons    NEL             ....    9
 Basis Dimension        Dim             ....   64

ORBITAL ENERGIES
----------------
                 SPIN UP ORBITALS
  NO   OCC          E(Eh)            E(eV)
   0   1.0000     -10.288522      -279.9649
   1   1.0000      -0.804262       -21.8851
   2   1.0000      -0.515924       -14.0390
   3   1.0000      -0.515906       -14.0385
   4   1.0000      -0.339161        -9.2290
   5   0.0000       0.076215         2.0739
   6   0.0000       0.161199         4.3865
   7   0.0000       0.161205         4.3866
   8   0.0000       0.200535         5.4568
   9   0.0000       0.200904         5.4669

                 SPIN DOWN ORBITALS
  NO   OCC          E(Eh)            E(eV)
   0   1.0000     -10.278157      -279.6829
   1   1.0000      -0.760990       -20.7076
   2   1.0000      -0.502770       -13.6811
   3   1.0000      -0.502766       -13.6809
   4   0.0000       0.002103         0.0572
   5   0.0000       0.086103         2.3430
   6   0.0000       0.165359         4.4997
   7   0.0000       0.165360         4.4997
   8   0.0000       0.202027         5.4974

MULLIKEN ATOMIC CHARGES AND SPIN POPULATIONS
--------------------------------------------
   0 C :   -0.725808    0.903999
   1 H :    0.241800    0.031950
   2 H :    0.242002    0.032026
   3 H :    0.242006    0.032026
Sum of atomic charges         :   -0.0000000

LOEWDIN ATOMIC CHARGES AND SPIN POPULATIONS
-------------------------------------------
   0 C :    0.057343    0.835451
   1 H :   -0.019110    0.054862
   2 H :   -0.019116    0.054844
   3 H :   -0.019116    0.054844

  Mayer bond orders larger than 0.100000
B(  0-C ,  1-H ) :   0.9637 B(  0-C ,  2-H ) :   0.9634 B(  0-C ,  3-H ) :   0.9634

Dispersion correction           -0.000016019
FINAL SINGLE POINT ENERGY       -39.836662689050

DIPOLE MOMENT
-------------
                                X             Y             Z
Electronic contribution:      0.00003       0.00000       0.32362
Nuclear contribution   :      0.00002      -0.00000      -0.49376
                        -----------------------------------------
Total Dipole Moment    :      0.00005      -0.00000      -0.17014
                        -----------------------------------------
Magnitude (a.u.)       :      0.17014
Magnitude (Debye)      :      0.43247

Dispersion correction in the Hessian             ... done   (      0.1 sec)

VIBRATIONAL FREQUENCIES
-----------------------

Scaling factor for frequencies =  1.000000000  (already applied!)

   0:         0.00 cm**-1
   1:         0.00 cm**-1
   2:         0.00 cm**-1
   3:         0.00 cm**-1
   4:         0.00 cm**-1
   5:         0.00 cm**-1
   6:       881.17 cm**-1
   7:      1415.32 cm**-1
   8:      1422.26 cm**-1
   9:      3108.91 cm**-1
  10:      3264.63 cm**-1
  11:      3265.53 cm**-1

IR SPECTRUM
-----------

 Mode   freq       eps      Int      T**2         TX        TY        TZ
       cm**-1   L/(mol*cm) km/mol    a.u.
----------------------------------------------------------------------------
  6:    881.17   0.008941   45.19  0.003167  (-0.000134  0.000000  0.056272)
  7:   1415.32   0.000570    2.88  0.000126  ( 0.011193 -0.000000 -0.000568)
  8:   1422.26   0.000567    2.87  0.000124  ( 0.000000  0.011158 -0.000000)
  9:   3108.91   0.000007    0.04  0.000001  ( 0.000102 -0.000000 -0.000832)
 10:   3264.63   0.001997   10.09  0.000191  (-0.013815 -0.000004 -0.000025)
 11:   3265.53   0.001982   10.02  0.000189  (-0.000004  0.013762 -0.000000)

--------------------------
THERMOCHEMISTRY AT 298.15K
--------------------------

Temperature         ... 298.15 K
Pressure            ... 1.00 atm
Total Mass          ... 15.03 AMU

Throughout the following assumptions are being made:
  (1) The electronic state is orbitally nondegenerate
      but the spin degeneracy is treated
  (2) There are no thermally accessible electronically excited states
  (3) Hindered rotations indicated by low frequency modes are not
      treated as such but are treated as vibrations and this may
      cause some error
  (4) All equations used are the standard statistical mechanics
      equations for an ideal gas
  (5) All vibrations are strictly harmonic

freq.     881.17  E(vib)   ...       0.04
freq.    1415.32  E(vib)   ...       0.00
freq.    1422.26  E(vib)   ...       0.00
freq.    3108.91  E(vib)   ...       0.00
freq.    3264.63  E(vib)   ...       0.00
freq.    3265.53  E(vib)   ...       0.00

------------
INNER ENERGY
------------

The inner energy is: U= E(el) + E(ZPE) + E(vib) + E(rot) + E(trans)
    E(el)   - is the total energy from the electronic structure calculation
              = E(kin-el) + E(nuc-el) + E(el-el) + E(nuc-nuc)
    E(ZPE)  - the the zero temperature vibrational energy from the frequency calculation
    E(vib)  - the the finite temperature correction to E(ZPE) due to population
              of excited vibrational states
    E(rot)  - is the rotational thermal energy
    E(trans)- is the translational thermal energy

Summary of contributions to the inner energy U:
Electronic energy                ...    -39.83666269 Eh
Zero point energy                ...      0.03043135 Eh      19.10 kcal/mol
Thermal vibrational correction   ...      0.00007174 Eh       0.05 kcal/mol
Thermal rotational correction    ...      0.00141627 Eh       0.89 kcal/mol
Thermal translational correction ...      0.00141627 Eh       0.89 kcal/mol
-----------------------------------------------------------------------
Total thermal energy                    -39.80332705 Eh

Summary of corrections to the electronic energy:
(perhaps to be used in another calculation)
Total thermal correction                  0.00290429 Eh       1.82 kcal/mol
Non-thermal (ZPE) correction              0.03043135 Eh      19.10 kcal/mol
-----------------------------------------------------------------------
Total correction                          0.03333564 Eh      20.92 kcal/mol

--------
ENTHALPY
--------

The enthalpy is H = U + kB*T
                kB is Boltzmann's constant
Total free energy                 ...    -39.80332705 Eh
Thermal Enthalpy correction       ...      0.00094421 Eh       0.59 kcal/mol
-----------------------------------------------------------------------
Total Enthalpy                    ...    -39.80238284 Eh

Note: Rotational entropy computed according to Herzberg
Infrared and Raman Spectra, Chapter V,1, Van Nostrand Reinhold, 1945
Point Group:  C3v, Symmetry Number:   3
Rotational constants in cm-1:     9.271109     9.270829     4.952817

Vibrational entropy computed according to the QRRHO of S. Grimme
Chem.Eur.J. 2012 18 9955

-------
ENTROPY
-------

The entropy contributions are T*S = T*(S(el)+S(vib)+S(rot)+S(trans))
     S(el)   - electronic entropy
     S(vib)  - vibrational entropy
     S(rot)  - rotational entropy
     S(trans)- translational entropy
The entropies will be listed as multiplied by the temperature to get
units of energy

Electronic entropy                ...      0.00065446 Eh      0.41 kcal/mol
Vibrational entropy               ...      0.00008733 Eh      0.05 kcal/mol
Rotational entropy                ...      0.00561561 Eh      3.52 kcal/mol
Translational entropy             ...      0.01618771 Eh     10.16 kcal/mol
-----------------------------------------------------------------------
Final entropy term                ...      0.02254511 Eh     14.15 kcal/mol

In case the symmetry of your molecule has not been determined correctly
or in case you have a reason to use a different symmetry number we print
out the resulting rotational entropy values for sn=1,12 :
 --------------------------------------------------------
|  sn= 1 | S(rot)=       0.00665290 Eh      4.17 kcal/mol|
|  sn= 2 | S(rot)=       0.00599844 Eh      3.76 kcal/mol|
|  sn= 3 | S(rot)=       0.00561561 Eh      3.52 kcal/mol|
|  sn= 4 | S(rot)=       0.00534399 Eh      3.35 kcal/mol|
|  sn= 5 | S(rot)=       0.00513330 Eh      3.22 kcal/mol|
|  sn= 6 | S(rot)=       0.00496116 Eh      3.11 kcal/mol|
|  sn= 7 | S(rot)=       0.00481561 Eh      3.02 kcal/mol|
|  sn= 8 | S(rot)=       0.00468953 Eh      2.94 kcal/mol|
|  sn= 9 | S(rot)=       0.00457832 Eh      2.87 kcal/mol|
|  sn=10 | S(rot)=       0.00447884 Eh      2.81 kcal/mol|
|  sn=11 | S(rot)=       0.00438885 Eh      2.75 kcal/mol|
|  sn=12 | S(rot)=       0.00430670 Eh      2.70 kcal/mol|
 --------------------------------------------------------

-------------------
GIBBS FREE ENERGY
-------------------

The Gibbs free energy is G = H - T*S

Total enthalpy                    ...    -39.80238284 Eh
Total entropy correction          ...     -0.02254511 Eh    -14.15 kcal/mol
-----------------------------------------------------------------------
Final Gibbs free energy         ...    -39.82492795 Eh

For completeness - the Gibbs free energy minus the electronic energy
G-E(el)                           ...      0.01173474 Eh      7.36 kcal/mol

                             ****ORCA TERMINATED NORMALLY****
TOTAL RUN TIME: 0 days 0 hours 0 minutes 54 seconds 202 msec
