                         Program Version 5.0.4 -  RELEASE  -
|  1> ! UKS TightSCF wB97x-D3 def2-TZVPD xyzfile opt freq
|  2>
|  3> # CH3 radical 103.0 degrees fixed
|  4>
|  5> %maxcore 1000
|  6> %pal
|  7> nprocs 18
|  8> end
|  9>
| 10> %geom Constraints
| 11>         { A * 0 * C }
| 12>     end
| 13> end
| 14> * xyz 0 2
| 15> C 0.00 0.00 0.00
| 16> H 0.9759723049 0.0000000000 -0.4624695235
| 17> H -0.4879861524 0.8452168094 -0.4624695235
| 18> H -0.4879861524 -0.8452168094 -0.4624695235
| 19> **                         ****END OF INPUT****
 Total Charge           Charge          ....    0
 Multiplicity           Mult            ....    2
 Number of Electrons    NEL             ....    9
Dispersion correction           -0.000008302
FINAL SINGLE POINT ENERGY       -39.815482777484
Dispersion correction            ... done
Dispersion correction           -0.000009220
FINAL SINGLE POINT ENERGY       -39.815901463090
Dispersion correction            ... done
Dispersion correction           -0.000009262
FINAL SINGLE POINT ENERGY       -39.815902244940
Dispersion correction            ... done
                    ***********************HURRAY********************

CARTESIAN COORDINATES (ANGSTROEM)
---------------------------------
  C      0.000018    0.000000    0.004781
  H      0.989400    0.000000   -0.464057
  H     -0.494709    0.856883   -0.464066
  H     -0.494709   -0.856883   -0.464066

 Multiplicity           Mult            ....    2
 Number of Electrons    NEL             ....    9
 Basis Dimension        Dim             ....   64

ORBITAL ENERGIES
----------------
                 SPIN UP ORBITALS
  NO   OCC          E(Eh)            E(eV)
   0   1.0000     -10.298403      -280.2338
   1   1.0000      -0.812576       -22.1113
   2   1.0000      -0.496318       -13.5055
   3   1.0000      -0.496272       -13.5043
   4   1.0000      -0.378303       -10.2941
   5   0.0000       0.075036         2.0418
   6   0.0000       0.160615         4.3705
   7   0.0000       0.160621         4.3707
   8   0.0000       0.182300         4.9606
   9   0.0000       0.194196         5.2843

                 SPIN DOWN ORBITALS
  NO   OCC          E(Eh)            E(eV)
   0   1.0000     -10.287003      -279.9236
   1   1.0000      -0.775400       -21.0997
   2   1.0000      -0.481243       -13.0953
   3   1.0000      -0.481237       -13.0951
   4   0.0000      -0.027417        -0.7461
   5   0.0000       0.083526         2.2729
   6   0.0000       0.165834         4.5126
   7   0.0000       0.165841         4.5128
   8   0.0000       0.199630         5.4322

MULLIKEN ATOMIC CHARGES AND SPIN POPULATIONS
--------------------------------------------
   0 C :   -0.675682    0.888815
   1 H :    0.224899    0.037002
   2 H :    0.225392    0.037092
   3 H :    0.225391    0.037091
Sum of atomic charges         :   -0.0000000

LOEWDIN ATOMIC CHARGES AND SPIN POPULATIONS
-------------------------------------------
   0 C :    0.045222    0.838650
   1 H :   -0.015131    0.053787
   2 H :   -0.015045    0.053781
   3 H :   -0.015045    0.053781

  Mayer bond orders larger than 0.100000
B(  0-C ,  1-H ) :   1.0077 B(  0-C ,  2-H ) :   1.0072 B(  0-C ,  3-H ) :   1.0072

Dispersion correction           -0.000009264
FINAL SINGLE POINT ENERGY       -39.815902246229

DIPOLE MOMENT
-------------
                                X             Y             Z
Electronic contribution:      0.00001       0.00000       0.76594
Nuclear contribution   :     -0.00005      -0.00000      -1.05417
                        -----------------------------------------
Total Dipole Moment    :     -0.00005      -0.00000      -0.28823
                        -----------------------------------------
Magnitude (a.u.)       :      0.28823
Magnitude (Debye)      :      0.73263

Dispersion correction in the Hessian             ... done   (      0.1 sec)

VIBRATIONAL FREQUENCIES
-----------------------

Scaling factor for frequencies =  1.000000000  (already applied!)

   0:         0.00 cm**-1
   1:         0.00 cm**-1
   2:         0.00 cm**-1
   3:         0.00 cm**-1
   4:         0.00 cm**-1
   5:         0.00 cm**-1
   6:      1271.61 cm**-1
   7:      1402.06 cm**-1
   8:      1404.79 cm**-1
   9:      3056.79 cm**-1
  10:      3120.23 cm**-1
  11:      3120.23 cm**-1

IR SPECTRUM
-----------

 Mode   freq       eps      Int      T**2         TX        TY        TZ
       cm**-1   L/(mol*cm) km/mol    a.u.
----------------------------------------------------------------------------
  6:   1271.61   0.002033   10.28  0.000499  ( 0.000138 -0.000000  0.022338)
  7:   1402.06   0.000814    4.11  0.000181  (-0.000000 -0.013460 -0.000000)
  8:   1404.79   0.000811    4.10  0.000180  (-0.013425  0.000000 -0.000027)
  9:   3056.79   0.000017    0.08  0.000002  ( 0.000013 -0.000000 -0.001308)
 10:   3120.23   0.006224   31.46  0.000623  (-0.024946 -0.000480 -0.000035)
 11:   3120.23   0.006378   32.23  0.000638  (-0.000474  0.025252 -0.000001)

--------------------------
THERMOCHEMISTRY AT 298.15K
--------------------------

Temperature         ... 298.15 K
Pressure            ... 1.00 atm
Total Mass          ... 15.03 AMU

Throughout the following assumptions are being made:
  (1) The electronic state is orbitally nondegenerate
      but the spin degeneracy is treated
  (2) There are no thermally accessible electronically excited states
  (3) Hindered rotations indicated by low frequency modes are not
      treated as such but are treated as vibrations and this may
      cause some error
  (4) All equations used are the standard statistical mechanics
      equations for an ideal gas
  (5) All vibrations are strictly harmonic

freq.    1271.61  E(vib)   ...       0.01
freq.    1402.06  E(vib)   ...       0.00
freq.    1404.79  E(vib)   ...       0.00
freq.    3056.79  E(vib)   ...       0.00
freq.    3120.23  E(vib)   ...       0.00
freq.    3120.23  E(vib)   ...       0.00

------------
INNER ENERGY
------------

The inner energy is: U= E(el) + E(ZPE) + E(vib) + E(rot) + E(trans)
    E(el)   - is the total energy from the electronic structure calculation
              = E(kin-el) + E(nuc-el) + E(el-el) + E(nuc-nuc)
    E(ZPE)  - the the zero temperature vibrational energy from the frequency calculation
    E(vib)  - the the finite temperature correction to E(ZPE) due to population
              of excited vibrational states
    E(rot)  - is the rotational thermal energy
    E(trans)- is the translational thermal energy

Summary of contributions to the inner energy U:
Electronic energy                ...    -39.81590225 Eh
Zero point energy                ...      0.03047209 Eh      19.12 kcal/mol
Thermal vibrational correction   ...      0.00002723 Eh       0.02 kcal/mol
Thermal rotational correction    ...      0.00141627 Eh       0.89 kcal/mol
Thermal translational correction ...      0.00141627 Eh       0.89 kcal/mol
-----------------------------------------------------------------------
Total thermal energy                    -39.78257038 Eh

Summary of corrections to the electronic energy:
(perhaps to be used in another calculation)
Total thermal correction                  0.00285978 Eh       1.79 kcal/mol
Non-thermal (ZPE) correction              0.03047209 Eh      19.12 kcal/mol
-----------------------------------------------------------------------
Total correction                          0.03333187 Eh      20.92 kcal/mol

--------
ENTHALPY
--------

The enthalpy is H = U + kB*T
                kB is Boltzmann's constant
Total free energy                 ...    -39.78257038 Eh
Thermal Enthalpy correction       ...      0.00094421 Eh       0.59 kcal/mol
-----------------------------------------------------------------------
Total Enthalpy                    ...    -39.78162617 Eh

Note: Rotational entropy computed according to Herzberg
Infrared and Raman Spectra, Chapter V,1, Van Nostrand Reinhold, 1945
Point Group:  C3v, Symmetry Number:   3
Rotational constants in cm-1:     8.382061     8.381595     5.694422

Vibrational entropy computed according to the QRRHO of S. Grimme
Chem.Eur.J. 2012 18 9955

-------
ENTROPY
-------

The entropy contributions are T*S = T*(S(el)+S(vib)+S(rot)+S(trans))
     S(el)   - electronic entropy
     S(vib)  - vibrational entropy
     S(rot)  - rotational entropy
     S(trans)- translational entropy
The entropies will be listed as multiplied by the temperature to get
units of energy

Electronic entropy                ...      0.00065446 Eh      0.41 kcal/mol
Vibrational entropy               ...      0.00003145 Eh      0.02 kcal/mol
Rotational entropy                ...      0.00564494 Eh      3.54 kcal/mol
Translational entropy             ...      0.01618771 Eh     10.16 kcal/mol
-----------------------------------------------------------------------
Final entropy term                ...      0.02251855 Eh     14.13 kcal/mol

In case the symmetry of your molecule has not been determined correctly
or in case you have a reason to use a different symmetry number we print
out the resulting rotational entropy values for sn=1,12 :
 --------------------------------------------------------
|  sn= 1 | S(rot)=       0.00668222 Eh      4.19 kcal/mol|
|  sn= 2 | S(rot)=       0.00602777 Eh      3.78 kcal/mol|
|  sn= 3 | S(rot)=       0.00564494 Eh      3.54 kcal/mol|
|  sn= 4 | S(rot)=       0.00537331 Eh      3.37 kcal/mol|
|  sn= 5 | S(rot)=       0.00516262 Eh      3.24 kcal/mol|
|  sn= 6 | S(rot)=       0.00499048 Eh      3.13 kcal/mol|
|  sn= 7 | S(rot)=       0.00484493 Eh      3.04 kcal/mol|
|  sn= 8 | S(rot)=       0.00471885 Eh      2.96 kcal/mol|
|  sn= 9 | S(rot)=       0.00460765 Eh      2.89 kcal/mol|
|  sn=10 | S(rot)=       0.00450817 Eh      2.83 kcal/mol|
|  sn=11 | S(rot)=       0.00441818 Eh      2.77 kcal/mol|
|  sn=12 | S(rot)=       0.00433602 Eh      2.72 kcal/mol|
 --------------------------------------------------------

-------------------
GIBBS FREE ENERGY
-------------------

The Gibbs free energy is G = H - T*S

Total enthalpy                    ...    -39.78162617 Eh
Total entropy correction          ...     -0.02251855 Eh    -14.13 kcal/mol
-----------------------------------------------------------------------
Final Gibbs free energy         ...    -39.80414472 Eh

For completeness - the Gibbs free energy minus the electronic energy
G-E(el)                           ...      0.01175753 Eh      7.38 kcal/mol

                             ****ORCA TERMINATED NORMALLY****
TOTAL RUN TIME: 0 days 0 hours 1 minutes 11 seconds 387 msec
