                         Program Version 5.0.4 -  RELEASE  -
|  1> ! UKS TightSCF wB97x-D3 def2-TZVPD xyzfile opt freq
|  2>
|  3> # CH3 radical 100.0 degrees fixed
|  4>
|  5> %maxcore 1000
|  6> %pal
|  7> nprocs 18
|  8> end
|  9>
| 10> %geom Constraints
| 11>         { A * 0 * C }
| 12>     end
| 13> end
| 14> * xyz 0 2
| 15> C 0.00 0.00 0.00
| 16> H 0.9553160854 0.0000000000 -0.5037570615
| 17> H -0.4776580427 0.8273279986 -0.5037570615
| 18> H -0.4776580427 -0.8273279986 -0.5037570615
| 19> **                         ****END OF INPUT****
 Total Charge           Charge          ....    0
 Multiplicity           Mult            ....    2
 Number of Electrons    NEL             ....    9
Dispersion correction           -0.000007021
FINAL SINGLE POINT ENERGY       -39.808100696403
Dispersion correction            ... done
Dispersion correction           -0.000007937
FINAL SINGLE POINT ENERGY       -39.808675283293
Dispersion correction            ... done
Dispersion correction           -0.000007985
FINAL SINGLE POINT ENERGY       -39.808676715001
Dispersion correction            ... done
                    ***********************HURRAY********************

CARTESIAN COORDINATES (ANGSTROEM)
---------------------------------
  C      0.000012   -0.000000    0.006128
  H      0.970794   -0.000000   -0.505795
  H     -0.485403    0.840757   -0.505802
  H     -0.485403   -0.840757   -0.505802

 Multiplicity           Mult            ....    2
 Number of Electrons    NEL             ....    9
 Basis Dimension        Dim             ....   64

ORBITAL ENERGIES
----------------
                 SPIN UP ORBITALS
  NO   OCC          E(Eh)            E(eV)
   0   1.0000     -10.300753      -280.2977
   1   1.0000      -0.815077       -22.1794
   2   1.0000      -0.491400       -13.3717
   3   1.0000      -0.491362       -13.3706
   4   1.0000      -0.386983       -10.5303
   5   0.0000       0.074535         2.0282
   6   0.0000       0.160355         4.3635
   7   0.0000       0.160360         4.3636
   8   0.0000       0.176274         4.7967
   9   0.0000       0.193596         5.2680

                 SPIN DOWN ORBITALS
  NO   OCC          E(Eh)            E(eV)
   0   1.0000     -10.289112      -279.9810
   1   1.0000      -0.779067       -21.1995
   2   1.0000      -0.475947       -12.9512
   3   1.0000      -0.475937       -12.9509
   4   0.0000      -0.034444        -0.9373
   5   0.0000       0.082737         2.2514
   6   0.0000       0.165779         4.5111
   7   0.0000       0.165785         4.5112
   8   0.0000       0.199791         5.4366

MULLIKEN ATOMIC CHARGES AND SPIN POPULATIONS
--------------------------------------------
   0 C :   -0.666960    0.893921
   1 H :    0.222015    0.035335
   2 H :    0.222474    0.035372
   3 H :    0.222471    0.035372
Sum of atomic charges         :    0.0000000

LOEWDIN ATOMIC CHARGES AND SPIN POPULATIONS
-------------------------------------------
   0 C :    0.042542    0.840048
   1 H :   -0.014227    0.053321
   2 H :   -0.014157    0.053316
   3 H :   -0.014157    0.053316

  Mayer bond orders larger than 0.100000
B(  0-C ,  1-H ) :   1.0153 B(  0-C ,  2-H ) :   1.0148 B(  0-C ,  3-H ) :   1.0148

Dispersion correction           -0.000007988
FINAL SINGLE POINT ENERGY       -39.808676719386

DIPOLE MOMENT
-------------
                                X             Y             Z
Electronic contribution:      0.00001       0.00000       0.84921
Nuclear contribution   :     -0.00004       0.00000      -1.15104
                        -----------------------------------------
Total Dipole Moment    :     -0.00003       0.00000      -0.30183
                        -----------------------------------------
Magnitude (a.u.)       :      0.30183
Magnitude (Debye)      :      0.76718

Dispersion correction in the Hessian             ... done   (      0.1 sec)

VIBRATIONAL FREQUENCIES
-----------------------

Scaling factor for frequencies =  1.000000000  (already applied!)

   0:         0.00 cm**-1
   1:         0.00 cm**-1
   2:         0.00 cm**-1
   3:         0.00 cm**-1
   4:         0.00 cm**-1
   5:         0.00 cm**-1
   6:      1319.47 cm**-1
   7:      1393.84 cm**-1
   8:      1395.85 cm**-1
   9:      3047.59 cm**-1
  10:      3087.44 cm**-1
  11:      3087.65 cm**-1

IR SPECTRUM
-----------

 Mode   freq       eps      Int      T**2         TX        TY        TZ
       cm**-1   L/(mol*cm) km/mol    a.u.
----------------------------------------------------------------------------
  6:   1319.47   0.001613    8.15  0.000381  ( 0.000113 -0.000000 -0.019528)
  7:   1393.84   0.000931    4.71  0.000209  (-0.000000  0.014441 -0.000000)
  8:   1395.85   0.000949    4.80  0.000212  ( 0.014566  0.000000  0.000205)
  9:   3047.59   0.000016    0.08  0.000002  (-0.000155 -0.000000  0.001260)
 10:   3087.44   0.007217   36.47  0.000729  (-0.027009  0.000011 -0.000057)
 11:   3087.65   0.007386   37.32  0.000746  ( 0.000011  0.027321  0.000000)

--------------------------
THERMOCHEMISTRY AT 298.15K
--------------------------

Temperature         ... 298.15 K
Pressure            ... 1.00 atm
Total Mass          ... 15.03 AMU

Throughout the following assumptions are being made:
  (1) The electronic state is orbitally nondegenerate
      but the spin degeneracy is treated
  (2) There are no thermally accessible electronically excited states
  (3) Hindered rotations indicated by low frequency modes are not
      treated as such but are treated as vibrations and this may
      cause some error
  (4) All equations used are the standard statistical mechanics
      equations for an ideal gas
  (5) All vibrations are strictly harmonic

freq.    1319.47  E(vib)   ...       0.01
freq.    1393.84  E(vib)   ...       0.00
freq.    1395.85  E(vib)   ...       0.00
freq.    3047.59  E(vib)   ...       0.00
freq.    3087.44  E(vib)   ...       0.00
freq.    3087.65  E(vib)   ...       0.00

------------
INNER ENERGY
------------

The inner energy is: U= E(el) + E(ZPE) + E(vib) + E(rot) + E(trans)
    E(el)   - is the total energy from the electronic structure calculation
              = E(kin-el) + E(nuc-el) + E(el-el) + E(nuc-nuc)
    E(ZPE)  - the the zero temperature vibrational energy from the frequency calculation
    E(vib)  - the the finite temperature correction to E(ZPE) due to population
              of excited vibrational states
    E(rot)  - is the rotational thermal energy
    E(trans)- is the translational thermal energy

Summary of contributions to the inner energy U:
Electronic energy                ...    -39.80867672 Eh
Zero point energy                ...      0.03037216 Eh      19.06 kcal/mol
Thermal vibrational correction   ...      0.00002554 Eh       0.02 kcal/mol
Thermal rotational correction    ...      0.00141627 Eh       0.89 kcal/mol
Thermal translational correction ...      0.00141627 Eh       0.89 kcal/mol
-----------------------------------------------------------------------
Total thermal energy                    -39.77544647 Eh

Summary of corrections to the electronic energy:
(perhaps to be used in another calculation)
Total thermal correction                  0.00285809 Eh       1.79 kcal/mol
Non-thermal (ZPE) correction              0.03037216 Eh      19.06 kcal/mol
-----------------------------------------------------------------------
Total correction                          0.03323025 Eh      20.85 kcal/mol

--------
ENTHALPY
--------

The enthalpy is H = U + kB*T
                kB is Boltzmann's constant
Total free energy                 ...    -39.77544647 Eh
Thermal Enthalpy correction       ...      0.00094421 Eh       0.59 kcal/mol
-----------------------------------------------------------------------
Total Enthalpy                    ...    -39.77450226 Eh

Note: Rotational entropy computed according to Herzberg
Infrared and Raman Spectra, Chapter V,1, Van Nostrand Reinhold, 1945
Point Group:  C3v, Symmetry Number:   3
Rotational constants in cm-1:     8.190930     8.190654     5.914886

Vibrational entropy computed according to the QRRHO of S. Grimme
Chem.Eur.J. 2012 18 9955

-------
ENTROPY
-------

The entropy contributions are T*S = T*(S(el)+S(vib)+S(rot)+S(trans))
     S(el)   - electronic entropy
     S(vib)  - vibrational entropy
     S(rot)  - rotational entropy
     S(trans)- translational entropy
The entropies will be listed as multiplied by the temperature to get
units of energy

Electronic entropy                ...      0.00065446 Eh      0.41 kcal/mol
Vibrational entropy               ...      0.00002943 Eh      0.02 kcal/mol
Rotational entropy                ...      0.00564877 Eh      3.54 kcal/mol
Translational entropy             ...      0.01618771 Eh     10.16 kcal/mol
-----------------------------------------------------------------------
Final entropy term                ...      0.02252036 Eh     14.13 kcal/mol

In case the symmetry of your molecule has not been determined correctly
or in case you have a reason to use a different symmetry number we print
out the resulting rotational entropy values for sn=1,12 :
 --------------------------------------------------------
|  sn= 1 | S(rot)=       0.00668606 Eh      4.20 kcal/mol|
|  sn= 2 | S(rot)=       0.00603160 Eh      3.78 kcal/mol|
|  sn= 3 | S(rot)=       0.00564877 Eh      3.54 kcal/mol|
|  sn= 4 | S(rot)=       0.00537715 Eh      3.37 kcal/mol|
|  sn= 5 | S(rot)=       0.00516646 Eh      3.24 kcal/mol|
|  sn= 6 | S(rot)=       0.00499431 Eh      3.13 kcal/mol|
|  sn= 7 | S(rot)=       0.00484877 Eh      3.04 kcal/mol|
|  sn= 8 | S(rot)=       0.00472269 Eh      2.96 kcal/mol|
|  sn= 9 | S(rot)=       0.00461148 Eh      2.89 kcal/mol|
|  sn=10 | S(rot)=       0.00451200 Eh      2.83 kcal/mol|
|  sn=11 | S(rot)=       0.00442201 Eh      2.77 kcal/mol|
|  sn=12 | S(rot)=       0.00433986 Eh      2.72 kcal/mol|
 --------------------------------------------------------

-------------------
GIBBS FREE ENERGY
-------------------

The Gibbs free energy is G = H - T*S

Total enthalpy                    ...    -39.77450226 Eh
Total entropy correction          ...     -0.02252036 Eh    -14.13 kcal/mol
-----------------------------------------------------------------------
Final Gibbs free energy         ...    -39.79702263 Eh

For completeness - the Gibbs free energy minus the electronic energy
G-E(el)                           ...      0.01165409 Eh      7.31 kcal/mol

                             ****ORCA TERMINATED NORMALLY****
TOTAL RUN TIME: 0 days 0 hours 1 minutes 10 seconds 869 msec
