                         Program Version 5.0.4 -  RELEASE  -
|  1> ! UKS TightSCF wB97x-D3 def2-TZVPD xyzfile opt freq
|  2>
|  3> # CH3 radical 97.5 degrees fixed
|  4>
|  5> %maxcore 1000
|  6> %pal
|  7> nprocs 18
|  8> end
|  9>
| 10> %geom Constraints
| 11>         { A * 0 * C }
| 12>     end
| 13> end
| 14> * xyz 0 2
| 15> C 0.00 0.00 0.00
| 16> H 0.9376018169 0.0000000000 -0.5360063740
| 17> H -0.4688009085 0.8119869921 -0.5360063740
| 18> H -0.4688009085 -0.8119869921 -0.5360063740
| 19> **                         ****END OF INPUT****
 Total Charge           Charge          ....    0
 Multiplicity           Mult            ....    2
 Number of Electrons    NEL             ....    9
Dispersion correction           -0.000006067
FINAL SINGLE POINT ENERGY       -39.801221758897
Dispersion correction            ... done
Dispersion correction           -0.000006960
FINAL SINGLE POINT ENERGY       -39.801947211256
Dispersion correction            ... done
Dispersion correction           -0.000007013
FINAL SINGLE POINT ENERGY       -39.801949431873
Dispersion correction            ... done
                    ***********************HURRAY********************

CARTESIAN COORDINATES (ANGSTROEM)
---------------------------------
  C      0.000009    0.000000    0.007354
  H      0.954741    0.000000   -0.538454
  H     -0.477375    0.826847   -0.538459
  H     -0.477375   -0.826847   -0.538459

 Multiplicity           Mult            ....    2
 Number of Electrons    NEL             ....    9
 Basis Dimension        Dim             ....   64

ORBITAL ENERGIES
----------------
                 SPIN UP ORBITALS
  NO   OCC          E(Eh)            E(eV)
   0   1.0000     -10.302781      -280.3529
   1   1.0000      -0.817373       -22.2418
   2   1.0000      -0.487210       -13.2577
   3   1.0000      -0.487184       -13.2570
   4   1.0000      -0.394125       -10.7247
   5   0.0000       0.074029         2.0144
   6   0.0000       0.160089         4.3562
   7   0.0000       0.160095         4.3564
   8   0.0000       0.171752         4.6736
   9   0.0000       0.193237         5.2582

                 SPIN DOWN ORBITALS
  NO   OCC          E(Eh)            E(eV)
   0   1.0000     -10.290938      -280.0306
   1   1.0000      -0.782279       -21.2869
   2   1.0000      -0.471457       -12.8290
   3   1.0000      -0.471446       -12.8287
   4   0.0000      -0.040311        -1.0969
   5   0.0000       0.082018         2.2318
   6   0.0000       0.165701         4.5090
   7   0.0000       0.165703         4.5090
   8   0.0000       0.199965         5.4413

MULLIKEN ATOMIC CHARGES AND SPIN POPULATIONS
--------------------------------------------
   0 C :   -0.660427    0.899186
   1 H :    0.219855    0.033630
   2 H :    0.220285    0.033592
   3 H :    0.220287    0.033592
Sum of atomic charges         :   -0.0000000

LOEWDIN ATOMIC CHARGES AND SPIN POPULATIONS
-------------------------------------------
   0 C :    0.040411    0.841361
   1 H :   -0.013507    0.052885
   2 H :   -0.013452    0.052877
   3 H :   -0.013452    0.052877

  Mayer bond orders larger than 0.100000
B(  0-C ,  1-H ) :   1.0209 B(  0-C ,  2-H ) :   1.0203 B(  0-C ,  3-H ) :   1.0203

Dispersion correction           -0.000007016
FINAL SINGLE POINT ENERGY       -39.801949440533

DIPOLE MOMENT
-------------
                                X             Y             Z
Electronic contribution:      0.00008      -0.00000       0.91545
Nuclear contribution   :     -0.00003      -0.00000      -1.22722
                        -----------------------------------------
Total Dipole Moment    :      0.00005      -0.00000      -0.31177
                        -----------------------------------------
Magnitude (a.u.)       :      0.31177
Magnitude (Debye)      :      0.79246

Dispersion correction in the Hessian             ... done   (      0.1 sec)

VIBRATIONAL FREQUENCIES
-----------------------

Scaling factor for frequencies =  1.000000000  (already applied!)

   0:         0.00 cm**-1
   1:         0.00 cm**-1
   2:         0.00 cm**-1
   3:         0.00 cm**-1
   4:         0.00 cm**-1
   5:         0.00 cm**-1
   6:      1351.46 cm**-1
   7:      1383.20 cm**-1
   8:      1384.54 cm**-1
   9:      3040.23 cm**-1
  10:      3059.80 cm**-1
  11:      3060.02 cm**-1

IR SPECTRUM
-----------

 Mode   freq       eps      Int      T**2         TX        TY        TZ
       cm**-1   L/(mol*cm) km/mol    a.u.
----------------------------------------------------------------------------
  6:   1351.46   0.001371    6.93  0.000316  ( 0.000881  0.000000 -0.017768)
  7:   1383.20   0.001059    5.35  0.000239  (-0.000001  0.015457  0.000000)
  8:   1384.54   0.001088    5.50  0.000245  (-0.015637 -0.000001 -0.000907)
  9:   3040.23   0.000016    0.08  0.000002  ( 0.000380 -0.000000 -0.001220)
 10:   3059.80   0.008043   40.65  0.000820  (-0.028641 -0.000026 -0.000061)
 11:   3060.02   0.008210   41.49  0.000837  (-0.000025  0.028935 -0.000000)

--------------------------
THERMOCHEMISTRY AT 298.15K
--------------------------

Temperature         ... 298.15 K
Pressure            ... 1.00 atm
Total Mass          ... 15.03 AMU

Throughout the following assumptions are being made:
  (1) The electronic state is orbitally nondegenerate
      but the spin degeneracy is treated
  (2) There are no thermally accessible electronically excited states
  (3) Hindered rotations indicated by low frequency modes are not
      treated as such but are treated as vibrations and this may
      cause some error
  (4) All equations used are the standard statistical mechanics
      equations for an ideal gas
  (5) All vibrations are strictly harmonic

freq.    1351.46  E(vib)   ...       0.01
freq.    1383.20  E(vib)   ...       0.00
freq.    1384.54  E(vib)   ...       0.00
freq.    3040.23  E(vib)   ...       0.00
freq.    3059.80  E(vib)   ...       0.00
freq.    3060.02  E(vib)   ...       0.00

------------
INNER ENERGY
------------

The inner energy is: U= E(el) + E(ZPE) + E(vib) + E(rot) + E(trans)
    E(el)   - is the total energy from the electronic structure calculation
              = E(kin-el) + E(nuc-el) + E(el-el) + E(nuc-nuc)
    E(ZPE)  - the the zero temperature vibrational energy from the frequency calculation
    E(vib)  - the the finite temperature correction to E(ZPE) due to population
              of excited vibrational states
    E(rot)  - is the rotational thermal energy
    E(trans)- is the translational thermal energy

Summary of contributions to the inner energy U:
Electronic energy                ...    -39.80194944 Eh
Zero point energy                ...      0.03025235 Eh      18.98 kcal/mol
Thermal vibrational correction   ...      0.00002498 Eh       0.02 kcal/mol
Thermal rotational correction    ...      0.00141627 Eh       0.89 kcal/mol
Thermal translational correction ...      0.00141627 Eh       0.89 kcal/mol
-----------------------------------------------------------------------
Total thermal energy                    -39.76883956 Eh

Summary of corrections to the electronic energy:
(perhaps to be used in another calculation)
Total thermal correction                  0.00285752 Eh       1.79 kcal/mol
Non-thermal (ZPE) correction              0.03025235 Eh      18.98 kcal/mol
-----------------------------------------------------------------------
Total correction                          0.03310988 Eh      20.78 kcal/mol

--------
ENTHALPY
--------

The enthalpy is H = U + kB*T
                kB is Boltzmann's constant
Total free energy                 ...    -39.76883956 Eh
Thermal Enthalpy correction       ...      0.00094421 Eh       0.59 kcal/mol
-----------------------------------------------------------------------
Total Enthalpy                    ...    -39.76789536 Eh

Note: Rotational entropy computed according to Herzberg
Infrared and Raman Spectra, Chapter V,1, Van Nostrand Reinhold, 1945
Point Group:  C3v, Symmetry Number:   3
Rotational constants in cm-1:     8.035381     8.035194     6.115522

Vibrational entropy computed according to the QRRHO of S. Grimme
Chem.Eur.J. 2012 18 9955

-------
ENTROPY
-------

The entropy contributions are T*S = T*(S(el)+S(vib)+S(rot)+S(trans))
     S(el)   - electronic entropy
     S(vib)  - vibrational entropy
     S(rot)  - rotational entropy
     S(trans)- translational entropy
The entropies will be listed as multiplied by the temperature to get
units of energy

Electronic entropy                ...      0.00065446 Eh      0.41 kcal/mol
Vibrational entropy               ...      0.00002876 Eh      0.02 kcal/mol
Rotational entropy                ...      0.00565112 Eh      3.55 kcal/mol
Translational entropy             ...      0.01618771 Eh     10.16 kcal/mol
-----------------------------------------------------------------------
Final entropy term                ...      0.02252204 Eh     14.13 kcal/mol

In case the symmetry of your molecule has not been determined correctly
or in case you have a reason to use a different symmetry number we print
out the resulting rotational entropy values for sn=1,12 :
 --------------------------------------------------------
|  sn= 1 | S(rot)=       0.00668841 Eh      4.20 kcal/mol|
|  sn= 2 | S(rot)=       0.00603395 Eh      3.79 kcal/mol|
|  sn= 3 | S(rot)=       0.00565112 Eh      3.55 kcal/mol|
|  sn= 4 | S(rot)=       0.00537950 Eh      3.38 kcal/mol|
|  sn= 5 | S(rot)=       0.00516881 Eh      3.24 kcal/mol|
|  sn= 6 | S(rot)=       0.00499666 Eh      3.14 kcal/mol|
|  sn= 7 | S(rot)=       0.00485112 Eh      3.04 kcal/mol|
|  sn= 8 | S(rot)=       0.00472504 Eh      2.97 kcal/mol|
|  sn= 9 | S(rot)=       0.00461383 Eh      2.90 kcal/mol|
|  sn=10 | S(rot)=       0.00451435 Eh      2.83 kcal/mol|
|  sn=11 | S(rot)=       0.00442436 Eh      2.78 kcal/mol|
|  sn=12 | S(rot)=       0.00434221 Eh      2.72 kcal/mol|
 --------------------------------------------------------

-------------------
GIBBS FREE ENERGY
-------------------

The Gibbs free energy is G = H - T*S

Total enthalpy                    ...    -39.76789536 Eh
Total entropy correction          ...     -0.02252204 Eh    -14.13 kcal/mol
-----------------------------------------------------------------------
Final Gibbs free energy         ...    -39.79041740 Eh

For completeness - the Gibbs free energy minus the electronic energy
G-E(el)                           ...      0.01153205 Eh      7.24 kcal/mol

                             ****ORCA TERMINATED NORMALLY****
TOTAL RUN TIME: 0 days 0 hours 1 minutes 16 seconds 644 msec
