                         Program Version 5.0.4 -  RELEASE  -
|  1> ! UKS TightSCF wB97x-D3 def2-TZVPD xyzfile opt freq
|  2>
|  3> # CH3 radical 120.0 degrees fixed
|  4>
|  5> %maxcore 1000
|  6> %pal
|  7> nprocs 18
|  8> end
|  9>
| 10> %geom Constraints
| 11>         { A * 0 * C }
| 12>     end
| 13> end
| 14> * xyz 0 2
| 15> C 0.00 0.00 0.00
| 16> H 1.0800000000 0.0000000000 0.0000000000
| 17> H -0.5400000000 0.9353074361 0.0000000000
| 18> H -0.5400000000 -0.9353074361 0.0000000000
| 19> **                         ****END OF INPUT****
 Total Charge           Charge          ....    0
 Multiplicity           Mult            ....    2
 Number of Electrons    NEL             ....    9
Dispersion correction           -0.000018432
FINAL SINGLE POINT ENERGY       -39.839610873488
Dispersion correction            ... done
                    ***********************HURRAY********************

CARTESIAN COORDINATES (ANGSTROEM)
---------------------------------
  C      0.000004    0.000000    0.000000
  H      1.079508    0.000000   -0.000000
  H     -0.539756    0.934891   -0.000000
  H     -0.539756   -0.934891   -0.000000

 Multiplicity           Mult            ....    2
 Number of Electrons    NEL             ....    9
 Basis Dimension        Dim             ....   64

ORBITAL ENERGIES
----------------
                 SPIN UP ORBITALS
  NO   OCC          E(Eh)            E(eV)
   0   1.0000     -10.285287      -279.8769
   1   1.0000      -0.802323       -21.8323
   2   1.0000      -0.521328       -14.1861
   3   1.0000      -0.521320       -14.1858
   4   1.0000      -0.326576        -8.8866
   5   0.0000       0.076397         2.0789
   6   0.0000       0.161164         4.3855
   7   0.0000       0.161165         4.3855
   8   0.0000       0.196050         5.3348
   9   0.0000       0.205833         5.6010

                 SPIN DOWN ORBITALS
  NO   OCC          E(Eh)            E(eV)
   0   1.0000     -10.275258      -279.6040
   1   1.0000      -0.756636       -20.5891
   2   1.0000      -0.508900       -13.8479
   3   1.0000      -0.508865       -13.8469
   4   0.0000       0.010470         0.2849
   5   0.0000       0.086648         2.3578
   6   0.0000       0.164611         4.4793
   7   0.0000       0.164613         4.4794
   8   0.0000       0.205802         5.6001

MULLIKEN ATOMIC CHARGES AND SPIN POPULATIONS
--------------------------------------------
   0 C :   -0.767955    0.925689
   1 H :    0.256394    0.024840
   2 H :    0.255781    0.024736
   3 H :    0.255780    0.024735
Sum of atomic charges         :   -0.0000000

LOEWDIN ATOMIC CHARGES AND SPIN POPULATIONS
-------------------------------------------
   0 C :    0.060561    0.835503
   1 H :   -0.020202    0.054830
   2 H :   -0.020179    0.054833
   3 H :   -0.020179    0.054833

  Mayer bond orders larger than 0.100000
B(  0-C ,  1-H ) :   0.9400 B(  0-C ,  2-H ) :   0.9406 B(  0-C ,  3-H ) :   0.9406

Dispersion correction           -0.000018366
FINAL SINGLE POINT ENERGY       -39.839611333411

DIPOLE MOMENT
-------------
                                X             Y             Z
Electronic contribution:      0.00005      -0.00000       0.00000
Nuclear contribution   :     -0.00001      -0.00000      -0.00000
                        -----------------------------------------
Total Dipole Moment    :      0.00004      -0.00000      -0.00000
                        -----------------------------------------
Magnitude (a.u.)       :      0.00004
Magnitude (Debye)      :      0.00009

Dispersion correction in the Hessian             ... done   (      0.1 sec)

VIBRATIONAL FREQUENCIES
-----------------------

Scaling factor for frequencies =  1.000000000  (already applied!)

   0:         0.00 cm**-1
   1:         0.00 cm**-1
   2:         0.00 cm**-1
   3:         0.00 cm**-1
   4:         0.00 cm**-1
   5:         0.00 cm**-1
   6:       524.37 cm**-1
   7:      1402.34 cm**-1
   8:      1406.03 cm**-1
   9:      3133.34 cm**-1
  10:      3313.68 cm**-1
  11:      3314.05 cm**-1

IR SPECTRUM
-----------

 Mode   freq       eps      Int      T**2         TX        TY        TZ
       cm**-1   L/(mol*cm) km/mol    a.u.
----------------------------------------------------------------------------
  6:    524.37   0.016043   81.08  0.009547  ( 0.000000 -0.000000  0.097711)
  7:   1402.34   0.000554    2.80  0.000123  ( 0.011106 -0.000000  0.000000)
  8:   1406.03   0.000553    2.80  0.000123  (-0.000000 -0.011083  0.000000)
  9:   3133.34   0.000000    0.00  0.000000  ( 0.000067 -0.000000 -0.000000)
 10:   3313.68   0.000866    4.37  0.000082  (-0.009028 -0.000001  0.000000)
 11:   3314.05   0.000831    4.20  0.000078  ( 0.000001 -0.008844  0.000000)

--------------------------
THERMOCHEMISTRY AT 298.15K
--------------------------

Temperature         ... 298.15 K
Pressure            ... 1.00 atm
Total Mass          ... 15.03 AMU

Throughout the following assumptions are being made:
  (1) The electronic state is orbitally nondegenerate
      but the spin degeneracy is treated
  (2) There are no thermally accessible electronically excited states
  (3) Hindered rotations indicated by low frequency modes are not
      treated as such but are treated as vibrations and this may
      cause some error
  (4) All equations used are the standard statistical mechanics
      equations for an ideal gas
  (5) All vibrations are strictly harmonic

freq.     524.37  E(vib)   ...       0.13
freq.    1402.34  E(vib)   ...       0.00
freq.    1406.03  E(vib)   ...       0.00
freq.    3133.34  E(vib)   ...       0.00
freq.    3313.68  E(vib)   ...       0.00
freq.    3314.05  E(vib)   ...       0.00

------------
INNER ENERGY
------------

The inner energy is: U= E(el) + E(ZPE) + E(vib) + E(rot) + E(trans)
    E(el)   - is the total energy from the electronic structure calculation
              = E(kin-el) + E(nuc-el) + E(el-el) + E(nuc-nuc)
    E(ZPE)  - the the zero temperature vibrational energy from the frequency calculation
    E(vib)  - the the finite temperature correction to E(ZPE) due to population
              of excited vibrational states
    E(rot)  - is the rotational thermal energy
    E(trans)- is the translational thermal energy

Summary of contributions to the inner energy U:
Electronic energy                ...    -39.83961133 Eh
Zero point energy                ...      0.02982993 Eh      18.72 kcal/mol
Thermal vibrational correction   ...      0.00022133 Eh       0.14 kcal/mol
Thermal rotational correction    ...      0.00141627 Eh       0.89 kcal/mol
Thermal translational correction ...      0.00141627 Eh       0.89 kcal/mol
-----------------------------------------------------------------------
Total thermal energy                    -39.80672754 Eh

Summary of corrections to the electronic energy:
(perhaps to be used in another calculation)
Total thermal correction                  0.00305387 Eh       1.92 kcal/mol
Non-thermal (ZPE) correction              0.02982993 Eh      18.72 kcal/mol
-----------------------------------------------------------------------
Total correction                          0.03288380 Eh      20.63 kcal/mol

--------
ENTHALPY
--------

The enthalpy is H = U + kB*T
                kB is Boltzmann's constant
Total free energy                 ...    -39.80672754 Eh
Thermal Enthalpy correction       ...      0.00094421 Eh       0.59 kcal/mol
-----------------------------------------------------------------------
Total Enthalpy                    ...    -39.80578333 Eh

Note: Rotational entropy computed according to Herzberg
Infrared and Raman Spectra, Chapter V,1, Van Nostrand Reinhold, 1945
Point Group:  D3h, Symmetry Number:   6
Rotational constants in cm-1:     9.567369     9.567187     4.783639

Vibrational entropy computed according to the QRRHO of S. Grimme
Chem.Eur.J. 2012 18 9955

-------
ENTROPY
-------

The entropy contributions are T*S = T*(S(el)+S(vib)+S(rot)+S(trans))
     S(el)   - electronic entropy
     S(vib)  - vibrational entropy
     S(rot)  - rotational entropy
     S(trans)- translational entropy
The entropies will be listed as multiplied by the temperature to get
units of energy

Electronic entropy                ...      0.00065446 Eh      0.41 kcal/mol
Vibrational entropy               ...      0.00030221 Eh      0.19 kcal/mol
Rotational entropy                ...      0.00494786 Eh      3.10 kcal/mol
Translational entropy             ...      0.01618771 Eh     10.16 kcal/mol
-----------------------------------------------------------------------
Final entropy term                ...      0.02209223 Eh     13.86 kcal/mol

In case the symmetry of your molecule has not been determined correctly
or in case you have a reason to use a different symmetry number we print
out the resulting rotational entropy values for sn=1,12 :
 --------------------------------------------------------
|  sn= 1 | S(rot)=       0.00663960 Eh      4.17 kcal/mol|
|  sn= 2 | S(rot)=       0.00598515 Eh      3.76 kcal/mol|
|  sn= 3 | S(rot)=       0.00560231 Eh      3.52 kcal/mol|
|  sn= 4 | S(rot)=       0.00533069 Eh      3.35 kcal/mol|
|  sn= 5 | S(rot)=       0.00512000 Eh      3.21 kcal/mol|
|  sn= 6 | S(rot)=       0.00494786 Eh      3.10 kcal/mol|
|  sn= 7 | S(rot)=       0.00480231 Eh      3.01 kcal/mol|
|  sn= 8 | S(rot)=       0.00467623 Eh      2.93 kcal/mol|
|  sn= 9 | S(rot)=       0.00456503 Eh      2.86 kcal/mol|
|  sn=10 | S(rot)=       0.00446555 Eh      2.80 kcal/mol|
|  sn=11 | S(rot)=       0.00437556 Eh      2.75 kcal/mol|
|  sn=12 | S(rot)=       0.00429340 Eh      2.69 kcal/mol|
 --------------------------------------------------------

-------------------
GIBBS FREE ENERGY
-------------------

The Gibbs free energy is G = H - T*S

Total enthalpy                    ...    -39.80578333 Eh
Total entropy correction          ...     -0.02209223 Eh    -13.86 kcal/mol
-----------------------------------------------------------------------
Final Gibbs free energy         ...    -39.82787556 Eh

For completeness - the Gibbs free energy minus the electronic energy
G-E(el)                           ...      0.01173578 Eh      7.36 kcal/mol

                             ****ORCA TERMINATED NORMALLY****
TOTAL RUN TIME: 0 days 0 hours 0 minutes 38 seconds 459 msec
