                         Program Version 5.0.4 -  RELEASE  -
|  1> ! UKS TightSCF wB97x-D3 def2-TZVPD xyzfile opt freq
|  2>
|  3> # CH3 radical 107.5 degrees fixed
|  4>
|  5> %maxcore 1000
|  6> %pal
|  7> nprocs 18
|  8> end
|  9>
| 10> %geom Constraints
| 11>         { A * 0 * C }
| 12>     end
| 13> end
| 14> * xyz 0 2
| 15> C 0.00 0.00 0.00
| 16> H 1.0056981802 0.0000000000 -0.3936637782
| 17> H -0.5028490901 0.8709601726 -0.3936637782
| 18> H -0.5028490901 -0.8709601726 -0.3936637782
| 19> **                         ****END OF INPUT****
 Total Charge           Charge          ....    0
 Multiplicity           Mult            ....    2
 Number of Electrons    NEL             ....    9
Dispersion correction           -0.000010508
FINAL SINGLE POINT ENERGY       -39.824796088893
Dispersion correction            ... done
Dispersion correction           -0.000011365
FINAL SINGLE POINT ENERGY       -39.825027570211
Dispersion correction            ... done
                    ***********************HURRAY********************

CARTESIAN COORDINATES (ANGSTROEM)
---------------------------------
  C      0.000012    0.000000    0.003002
  H      1.015907    0.000000   -0.394661
  H     -0.507960    0.879828   -0.394666
  H     -0.507960   -0.879828   -0.394666

 Multiplicity           Mult            ....    2
 Number of Electrons    NEL             ....    9
 Basis Dimension        Dim             ....   64

ORBITAL ENERGIES
----------------
                 SPIN UP ORBITALS
  NO   OCC          E(Eh)            E(eV)
   0   1.0000     -10.294968      -280.1403
   1   1.0000      -0.809284       -22.0217
   2   1.0000      -0.503435       -13.6992
   3   1.0000      -0.503403       -13.6983
   4   1.0000      -0.365031        -9.9330
   5   0.0000       0.075596         2.0571
   6   0.0000       0.160905         4.3784
   7   0.0000       0.160912         4.3786
   8   0.0000       0.192023         5.2252
   9   0.0000       0.195565         5.3216

                 SPIN DOWN ORBITALS
  NO   OCC          E(Eh)            E(eV)
   0   1.0000     -10.283927      -279.8399
   1   1.0000      -0.770202       -20.9583
   2   1.0000      -0.489005       -13.3065
   3   1.0000      -0.488954       -13.3051
   4   0.0000      -0.016951        -0.4613
   5   0.0000       0.084569         2.3013
   6   0.0000       0.165832         4.5125
   7   0.0000       0.165836         4.5126
   8   0.0000       0.199635         5.4323

MULLIKEN ATOMIC CHARGES AND SPIN POPULATIONS
--------------------------------------------
   0 C :   -0.690941    0.885859
   1 H :    0.230031    0.037999
   2 H :    0.230457    0.038071
   3 H :    0.230454    0.038070
Sum of atomic charges         :   -0.0000000

LOEWDIN ATOMIC CHARGES AND SPIN POPULATIONS
-------------------------------------------
   0 C :    0.049408    0.836933
   1 H :   -0.016511    0.054365
   2 H :   -0.016448    0.054351
   3 H :   -0.016448    0.054351

  Mayer bond orders larger than 0.100000
B(  0-C ,  1-H ) :   0.9951 B(  0-C ,  2-H ) :   0.9945 B(  0-C ,  3-H ) :   0.9945

Dispersion correction           -0.000011395
FINAL SINGLE POINT ENERGY       -39.825027824195

DIPOLE MOMENT
-------------
                                X             Y             Z
Electronic contribution:      0.00011      -0.00000       0.63163
Nuclear contribution   :     -0.00004      -0.00000      -0.89413
                        -----------------------------------------
Total Dipole Moment    :      0.00007      -0.00000      -0.26250
                        -----------------------------------------
Magnitude (a.u.)       :      0.26250
Magnitude (Debye)      :      0.66722

Dispersion correction in the Hessian             ... done   (      0.1 sec)

VIBRATIONAL FREQUENCIES
-----------------------

Scaling factor for frequencies =  1.000000000  (already applied!)

   0:         0.00 cm**-1
   1:         0.00 cm**-1
   2:         0.00 cm**-1
   3:         0.00 cm**-1
   4:         0.00 cm**-1
   5:         0.00 cm**-1
   6:      1183.96 cm**-1
   7:      1412.42 cm**-1
   8:      1414.64 cm**-1
   9:      3071.84 cm**-1
  10:      3169.08 cm**-1
  11:      3169.22 cm**-1

IR SPECTRUM
-----------

 Mode   freq       eps      Int      T**2         TX        TY        TZ
       cm**-1   L/(mol*cm) km/mol    a.u.
----------------------------------------------------------------------------
  6:   1183.96   0.003152   15.93  0.000831  ( 0.000005 -0.000000  0.028822)
  7:   1412.42   0.000682    3.45  0.000151  ( 0.000000 -0.012276 -0.000000)
  8:   1414.64   0.000668    3.38  0.000147  (-0.012132 -0.000000 -0.000355)
  9:   3071.84   0.000017    0.09  0.000002  ( 0.000058  0.000000  0.001308)
 10:   3169.08   0.004839   24.45  0.000476  ( 0.000018  0.021828  0.000000)
 11:   3169.22   0.004736   23.93  0.000466  ( 0.021594 -0.000018 -0.000019)

--------------------------
THERMOCHEMISTRY AT 298.15K
--------------------------

Temperature         ... 298.15 K
Pressure            ... 1.00 atm
Total Mass          ... 15.03 AMU

Throughout the following assumptions are being made:
  (1) The electronic state is orbitally nondegenerate
      but the spin degeneracy is treated
  (2) There are no thermally accessible electronically excited states
  (3) Hindered rotations indicated by low frequency modes are not
      treated as such but are treated as vibrations and this may
      cause some error
  (4) All equations used are the standard statistical mechanics
      equations for an ideal gas
  (5) All vibrations are strictly harmonic

freq.    1183.96  E(vib)   ...       0.01
freq.    1412.42  E(vib)   ...       0.00
freq.    1414.64  E(vib)   ...       0.00
freq.    3071.84  E(vib)   ...       0.00
freq.    3169.08  E(vib)   ...       0.00
freq.    3169.22  E(vib)   ...       0.00

------------
INNER ENERGY
------------

The inner energy is: U= E(el) + E(ZPE) + E(vib) + E(rot) + E(trans)
    E(el)   - is the total energy from the electronic structure calculation
              = E(kin-el) + E(nuc-el) + E(el-el) + E(nuc-nuc)
    E(ZPE)  - the the zero temperature vibrational energy from the frequency calculation
    E(vib)  - the the finite temperature correction to E(ZPE) due to population
              of excited vibrational states
    E(rot)  - is the rotational thermal energy
    E(trans)- is the translational thermal energy

Summary of contributions to the inner energy U:
Electronic energy                ...    -39.82502782 Eh
Zero point energy                ...      0.03057564 Eh      19.19 kcal/mol
Thermal vibrational correction   ...      0.00003195 Eh       0.02 kcal/mol
Thermal rotational correction    ...      0.00141627 Eh       0.89 kcal/mol
Thermal translational correction ...      0.00141627 Eh       0.89 kcal/mol
-----------------------------------------------------------------------
Total thermal energy                    -39.79158770 Eh

Summary of corrections to the electronic energy:
(perhaps to be used in another calculation)
Total thermal correction                  0.00286449 Eh       1.80 kcal/mol
Non-thermal (ZPE) correction              0.03057564 Eh      19.19 kcal/mol
-----------------------------------------------------------------------
Total correction                          0.03344013 Eh      20.98 kcal/mol

--------
ENTHALPY
--------

The enthalpy is H = U + kB*T
                kB is Boltzmann's constant
Total free energy                 ...    -39.79158770 Eh
Thermal Enthalpy correction       ...      0.00094421 Eh       0.59 kcal/mol
-----------------------------------------------------------------------
Total Enthalpy                    ...    -39.79064349 Eh

Note: Rotational entropy computed according to Herzberg
Infrared and Raman Spectra, Chapter V,1, Van Nostrand Reinhold, 1945
Point Group:  C3v, Symmetry Number:   3
Rotational constants in cm-1:     8.678207     8.677838     5.401226

Vibrational entropy computed according to the QRRHO of S. Grimme
Chem.Eur.J. 2012 18 9955

-------
ENTROPY
-------

The entropy contributions are T*S = T*(S(el)+S(vib)+S(rot)+S(trans))
     S(el)   - electronic entropy
     S(vib)  - vibrational entropy
     S(rot)  - rotational entropy
     S(trans)- translational entropy
The entropies will be listed as multiplied by the temperature to get
units of energy

Electronic entropy                ...      0.00065446 Eh      0.41 kcal/mol
Vibrational entropy               ...      0.00003714 Eh      0.02 kcal/mol
Rotational entropy                ...      0.00563710 Eh      3.54 kcal/mol
Translational entropy             ...      0.01618771 Eh     10.16 kcal/mol
-----------------------------------------------------------------------
Final entropy term                ...      0.02251641 Eh     14.13 kcal/mol

In case the symmetry of your molecule has not been determined correctly
or in case you have a reason to use a different symmetry number we print
out the resulting rotational entropy values for sn=1,12 :
 --------------------------------------------------------
|  sn= 1 | S(rot)=       0.00667439 Eh      4.19 kcal/mol|
|  sn= 2 | S(rot)=       0.00601993 Eh      3.78 kcal/mol|
|  sn= 3 | S(rot)=       0.00563710 Eh      3.54 kcal/mol|
|  sn= 4 | S(rot)=       0.00536548 Eh      3.37 kcal/mol|
|  sn= 5 | S(rot)=       0.00515479 Eh      3.23 kcal/mol|
|  sn= 6 | S(rot)=       0.00498264 Eh      3.13 kcal/mol|
|  sn= 7 | S(rot)=       0.00483710 Eh      3.04 kcal/mol|
|  sn= 8 | S(rot)=       0.00471102 Eh      2.96 kcal/mol|
|  sn= 9 | S(rot)=       0.00459981 Eh      2.89 kcal/mol|
|  sn=10 | S(rot)=       0.00450033 Eh      2.82 kcal/mol|
|  sn=11 | S(rot)=       0.00441034 Eh      2.77 kcal/mol|
|  sn=12 | S(rot)=       0.00432819 Eh      2.72 kcal/mol|
 --------------------------------------------------------

-------------------
GIBBS FREE ENERGY
-------------------

The Gibbs free energy is G = H - T*S

Total enthalpy                    ...    -39.79064349 Eh
Total entropy correction          ...     -0.02251641 Eh    -14.13 kcal/mol
-----------------------------------------------------------------------
Final Gibbs free energy         ...    -39.81315989 Eh

For completeness - the Gibbs free energy minus the electronic energy
G-E(el)                           ...      0.01186793 Eh      7.45 kcal/mol

                             ****ORCA TERMINATED NORMALLY****
TOTAL RUN TIME: 0 days 0 hours 0 minutes 54 seconds 500 msec
