                         Program Version 5.0.4 -  RELEASE  -
|  1> ! UKS TightSCF wB97x-D3 def2-TZVPD xyzfile opt freq
|  2>
|  3> # CH3 radical 117.5 degrees fixed
|  4>
|  5> %maxcore 1000
|  6> %pal
|  7> nprocs 18
|  8> end
|  9>
| 10> %geom Constraints
| 11>         { A * 0 * C }
| 12>     end
| 13> end
| 14> * xyz 0 2
| 15> C 0.00 0.00 0.00
| 16> H 1.0661405731 0.0000000000 -0.1724652961
| 17> H -0.5330702866 0.9233048203 -0.1724652961
| 18> H -0.5330702866 -0.9233048203 -0.1724652961
| 19> **                         ****END OF INPUT****
 Total Charge           Charge          ....    0
 Multiplicity           Mult            ....    2
 Number of Electrons    NEL             ....    9
Dispersion correction           -0.000016646
FINAL SINGLE POINT ENERGY       -39.837949854682
Dispersion correction            ... done
Dispersion correction           -0.000016890
FINAL SINGLE POINT ENERGY       -39.837957648340
Dispersion correction            ... done
                    ***********************HURRAY********************

CARTESIAN COORDINATES (ANGSTROEM)
---------------------------------
  C     -0.000004   -0.000000    0.000237
  H      1.068100   -0.000000   -0.172545
  H     -0.534048    0.924991   -0.172544
  H     -0.534048   -0.924991   -0.172544

 Multiplicity           Mult            ....    2
 Number of Electrons    NEL             ....    9
 Basis Dimension        Dim             ....   64

ORBITAL ENERGIES
----------------
                 SPIN UP ORBITALS
  NO   OCC          E(Eh)            E(eV)
   0   1.0000     -10.287353      -279.9331
   1   1.0000      -0.803511       -21.8647
   2   1.0000      -0.517985       -14.0951
   3   1.0000      -0.517979       -14.0949
   4   1.0000      -0.334482        -9.1017
   5   0.0000       0.076289         2.0759
   6   0.0000       0.161213         4.3868
   7   0.0000       0.161214         4.3869
   8   0.0000       0.199233         5.4214
   9   0.0000       0.202499         5.5103

                 SPIN DOWN ORBITALS
  NO   OCC          E(Eh)            E(eV)
   0   1.0000     -10.277108      -279.6543
   1   1.0000      -0.759380       -20.6638
   2   1.0000      -0.505110       -13.7448
   3   1.0000      -0.505070       -13.7437
   4   0.0000       0.005304         0.1443
   5   0.0000       0.086317         2.3488
   6   0.0000       0.165147         4.4939
   7   0.0000       0.165154         4.4941
   8   0.0000       0.203145         5.5279

MULLIKEN ATOMIC CHARGES AND SPIN POPULATIONS
--------------------------------------------
   0 C :   -0.735091    0.911403
   1 H :    0.244920    0.029446
   2 H :    0.245083    0.029576
   3 H :    0.245088    0.029574
Sum of atomic charges         :    0.0000000

LOEWDIN ATOMIC CHARGES AND SPIN POPULATIONS
-------------------------------------------
   0 C :    0.058671    0.835456
   1 H :   -0.019562    0.054851
   2 H :   -0.019555    0.054846
   3 H :   -0.019555    0.054846

  Mayer bond orders larger than 0.100000
B(  0-C ,  1-H ) :   0.9564 B(  0-C ,  2-H ) :   0.9560 B(  0-C ,  3-H ) :   0.9560

Dispersion correction           -0.000016891
FINAL SINGLE POINT ENERGY       -39.837957649187

DIPOLE MOMENT
-------------
                                X             Y             Z
Electronic contribution:     -0.00007       0.00000       0.25028
Nuclear contribution   :      0.00001       0.00000      -0.38849
                        -----------------------------------------
Total Dipole Moment    :     -0.00006       0.00000      -0.13820
                        -----------------------------------------
Magnitude (a.u.)       :      0.13820
Magnitude (Debye)      :      0.35129

Dispersion correction in the Hessian             ... done   (      0.1 sec)

VIBRATIONAL FREQUENCIES
-----------------------

Scaling factor for frequencies =  1.000000000  (already applied!)

   0:         0.00 cm**-1
   1:         0.00 cm**-1
   2:         0.00 cm**-1
   3:         0.00 cm**-1
   4:         0.00 cm**-1
   5:         0.00 cm**-1
   6:       774.35 cm**-1
   7:      1411.44 cm**-1
   8:      1416.09 cm**-1
   9:      3117.49 cm**-1
  10:      3282.56 cm**-1
  11:      3283.61 cm**-1

IR SPECTRUM
-----------

 Mode   freq       eps      Int      T**2         TX        TY        TZ
       cm**-1   L/(mol*cm) km/mol    a.u.
----------------------------------------------------------------------------
  6:    774.35   0.010955   55.36  0.004415  ( 0.000162 -0.000000 -0.066445)
  7:   1411.44   0.000554    2.80  0.000122  ( 0.011061 -0.000000 -0.000309)
  8:   1416.09   0.000562    2.84  0.000124  (-0.000000 -0.011130 -0.000000)
  9:   3117.49   0.000004    0.02  0.000000  ( 0.000114 -0.000000 -0.000624)
 10:   3282.56   0.001552    7.84  0.000147  ( 0.012145  0.000001  0.000026)
 11:   3283.61   0.001524    7.70  0.000145  (-0.000001  0.012037 -0.000000)

--------------------------
THERMOCHEMISTRY AT 298.15K
--------------------------

Temperature         ... 298.15 K
Pressure            ... 1.00 atm
Total Mass          ... 15.03 AMU

Throughout the following assumptions are being made:
  (1) The electronic state is orbitally nondegenerate
      but the spin degeneracy is treated
  (2) There are no thermally accessible electronically excited states
  (3) Hindered rotations indicated by low frequency modes are not
      treated as such but are treated as vibrations and this may
      cause some error
  (4) All equations used are the standard statistical mechanics
      equations for an ideal gas
  (5) All vibrations are strictly harmonic

freq.     774.35  E(vib)   ...       0.05
freq.    1411.44  E(vib)   ...       0.00
freq.    1416.09  E(vib)   ...       0.00
freq.    3117.49  E(vib)   ...       0.00
freq.    3282.56  E(vib)   ...       0.00
freq.    3283.61  E(vib)   ...       0.00

------------
INNER ENERGY
------------

The inner energy is: U= E(el) + E(ZPE) + E(vib) + E(rot) + E(trans)
    E(el)   - is the total energy from the electronic structure calculation
              = E(kin-el) + E(nuc-el) + E(el-el) + E(nuc-nuc)
    E(ZPE)  - the the zero temperature vibrational energy from the frequency calculation
    E(vib)  - the the finite temperature correction to E(ZPE) due to population
              of excited vibrational states
    E(rot)  - is the rotational thermal energy
    E(trans)- is the translational thermal energy

Summary of contributions to the inner energy U:
Electronic energy                ...    -39.83795765 Eh
Zero point energy                ...      0.03026667 Eh      18.99 kcal/mol
Thermal vibrational correction   ...      0.00010020 Eh       0.06 kcal/mol
Thermal rotational correction    ...      0.00141627 Eh       0.89 kcal/mol
Thermal translational correction ...      0.00141627 Eh       0.89 kcal/mol
-----------------------------------------------------------------------
Total thermal energy                    -39.80475824 Eh

Summary of corrections to the electronic energy:
(perhaps to be used in another calculation)
Total thermal correction                  0.00293274 Eh       1.84 kcal/mol
Non-thermal (ZPE) correction              0.03026667 Eh      18.99 kcal/mol
-----------------------------------------------------------------------
Total correction                          0.03319941 Eh      20.83 kcal/mol

--------
ENTHALPY
--------

The enthalpy is H = U + kB*T
                kB is Boltzmann's constant
Total free energy                 ...    -39.80475824 Eh
Thermal Enthalpy correction       ...      0.00094421 Eh       0.59 kcal/mol
-----------------------------------------------------------------------
Total Enthalpy                    ...    -39.80381403 Eh

Note: Rotational entropy computed according to Herzberg
Infrared and Raman Spectra, Chapter V,1, Van Nostrand Reinhold, 1945
Point Group:  C3v, Symmetry Number:   3
Rotational constants in cm-1:     9.380851     9.380677     4.886487

Vibrational entropy computed according to the QRRHO of S. Grimme
Chem.Eur.J. 2012 18 9955

-------
ENTROPY
-------

The entropy contributions are T*S = T*(S(el)+S(vib)+S(rot)+S(trans))
     S(el)   - electronic entropy
     S(vib)  - vibrational entropy
     S(rot)  - rotational entropy
     S(trans)- translational entropy
The entropies will be listed as multiplied by the temperature to get
units of energy

Electronic entropy                ...      0.00065446 Eh      0.41 kcal/mol
Vibrational entropy               ...      0.00012511 Eh      0.08 kcal/mol
Rotational entropy                ...      0.00561086 Eh      3.52 kcal/mol
Translational entropy             ...      0.01618771 Eh     10.16 kcal/mol
-----------------------------------------------------------------------
Final entropy term                ...      0.02257814 Eh     14.17 kcal/mol

In case the symmetry of your molecule has not been determined correctly
or in case you have a reason to use a different symmetry number we print
out the resulting rotational entropy values for sn=1,12 :
 --------------------------------------------------------
|  sn= 1 | S(rot)=       0.00664815 Eh      4.17 kcal/mol|
|  sn= 2 | S(rot)=       0.00599369 Eh      3.76 kcal/mol|
|  sn= 3 | S(rot)=       0.00561086 Eh      3.52 kcal/mol|
|  sn= 4 | S(rot)=       0.00533924 Eh      3.35 kcal/mol|
|  sn= 5 | S(rot)=       0.00512855 Eh      3.22 kcal/mol|
|  sn= 6 | S(rot)=       0.00495640 Eh      3.11 kcal/mol|
|  sn= 7 | S(rot)=       0.00481086 Eh      3.02 kcal/mol|
|  sn= 8 | S(rot)=       0.00468478 Eh      2.94 kcal/mol|
|  sn= 9 | S(rot)=       0.00457357 Eh      2.87 kcal/mol|
|  sn=10 | S(rot)=       0.00447409 Eh      2.81 kcal/mol|
|  sn=11 | S(rot)=       0.00438410 Eh      2.75 kcal/mol|
|  sn=12 | S(rot)=       0.00430195 Eh      2.70 kcal/mol|
 --------------------------------------------------------

-------------------
GIBBS FREE ENERGY
-------------------

The Gibbs free energy is G = H - T*S

Total enthalpy                    ...    -39.80381403 Eh
Total entropy correction          ...     -0.02257814 Eh    -14.17 kcal/mol
-----------------------------------------------------------------------
Final Gibbs free energy         ...    -39.82639217 Eh

For completeness - the Gibbs free energy minus the electronic energy
G-E(el)                           ...      0.01156548 Eh      7.26 kcal/mol

                             ****ORCA TERMINATED NORMALLY****
TOTAL RUN TIME: 0 days 0 hours 0 minutes 56 seconds 472 msec
