                         Program Version 5.0.4 -  RELEASE  -
|  1> ! UKS TightSCF wB97x-D3 def2-TZVPD xyzfile opt freq
|  2>
|  3> # CH3 radical 99.5 degrees fixed
|  4>
|  5> %maxcore 1000
|  6> %pal
|  7> nprocs 18
|  8> end
|  9>
| 10> %geom Constraints
| 11>         { A * 0 * C }
| 12>     end
| 13> end
| 14> * xyz 0 2
| 15> C 0.00 0.00 0.00
| 16> H 0.9518093393 0.0000000000 -0.5103518215
| 17> H -0.4759046696 0.8242910674 -0.5103518215
| 18> H -0.4759046696 -0.8242910674 -0.5103518215
| 19> **                         ****END OF INPUT****
 Total Charge           Charge          ....    0
 Multiplicity           Mult            ....    2
 Number of Electrons    NEL             ....    9
Dispersion correction           -0.000006822
FINAL SINGLE POINT ENERGY       -39.806778147986
Dispersion correction            ... done
Dispersion correction           -0.000007734
FINAL SINGLE POINT ENERGY       -39.807381307106
Dispersion correction            ... done
Dispersion correction           -0.000007784
FINAL SINGLE POINT ENERGY       -39.807382874780
Dispersion correction            ... done
                    ***********************HURRAY********************

CARTESIAN COORDINATES (ANGSTROEM)
---------------------------------
  C      0.000011    0.000000    0.006365
  H      0.967623    0.000000   -0.512470
  H     -0.483817    0.838008   -0.512476
  H     -0.483817   -0.838008   -0.512476

 Multiplicity           Mult            ....    2
 Number of Electrons    NEL             ....    9
 Basis Dimension        Dim             ....   64

ORBITAL ENERGIES
----------------
                 SPIN UP ORBITALS
  NO   OCC          E(Eh)            E(eV)
   0   1.0000     -10.301153      -280.3086
   1   1.0000      -0.815520       -22.1914
   2   1.0000      -0.490569       -13.3490
   3   1.0000      -0.490532       -13.3481
   4   1.0000      -0.388418       -10.5694
   5   0.0000       0.074440         2.0256
   6   0.0000       0.160305         4.3621
   7   0.0000       0.160311         4.3623
   8   0.0000       0.175331         4.7710
   9   0.0000       0.193515         5.2658

                 SPIN DOWN ORBITALS
  NO   OCC          E(Eh)            E(eV)
   0   1.0000     -10.289472      -279.9908
   1   1.0000      -0.779697       -21.2166
   2   1.0000      -0.475055       -12.9269
   3   1.0000      -0.475044       -12.9266
   4   0.0000      -0.035617        -0.9692
   5   0.0000       0.082598         2.2476
   6   0.0000       0.165765         4.5107
   7   0.0000       0.165771         4.5109
   8   0.0000       0.199824         5.4375

MULLIKEN ATOMIC CHARGES AND SPIN POPULATIONS
--------------------------------------------
   0 C :   -0.665619    0.894929
   1 H :    0.221571    0.035009
   2 H :    0.222027    0.035031
   3 H :    0.222021    0.035031
Sum of atomic charges         :   -0.0000000

LOEWDIN ATOMIC CHARGES AND SPIN POPULATIONS
-------------------------------------------
   0 C :    0.042108    0.840300
   1 H :   -0.014080    0.053237
   2 H :   -0.014014    0.053232
   3 H :   -0.014014    0.053232

  Mayer bond orders larger than 0.100000
B(  0-C ,  1-H ) :   1.0165 B(  0-C ,  2-H ) :   1.0159 B(  0-C ,  3-H ) :   1.0160

Dispersion correction           -0.000007787
FINAL SINGLE POINT ENERGY       -39.807382882154

DIPOLE MOMENT
-------------
                                X             Y             Z
Electronic contribution:      0.00002      -0.00000       0.86268
Nuclear contribution   :     -0.00003      -0.00000      -1.16658
                        -----------------------------------------
Total Dipole Moment    :     -0.00002      -0.00000      -0.30390
                        -----------------------------------------
Magnitude (a.u.)       :      0.30390
Magnitude (Debye)      :      0.77246

Dispersion correction in the Hessian             ... done   (      0.1 sec)

VIBRATIONAL FREQUENCIES
-----------------------

Scaling factor for frequencies =  1.000000000  (already applied!)

   0:         0.00 cm**-1
   1:         0.00 cm**-1
   2:         0.00 cm**-1
   3:         0.00 cm**-1
   4:         0.00 cm**-1
   5:         0.00 cm**-1
   6:      1326.47 cm**-1
   7:      1392.06 cm**-1
   8:      1393.93 cm**-1
   9:      3046.09 cm**-1
  10:      3081.95 cm**-1
  11:      3082.17 cm**-1

IR SPECTRUM
-----------

 Mode   freq       eps      Int      T**2         TX        TY        TZ
       cm**-1   L/(mol*cm) km/mol    a.u.
----------------------------------------------------------------------------
  6:   1326.47   0.001558    7.87  0.000367  (-0.000206 -0.000000  0.019143)
  7:   1392.06   0.000954    4.82  0.000214  ( 0.000000 -0.014626 -0.000000)
  8:   1393.93   0.000976    4.93  0.000218  (-0.014776 -0.000000 -0.000286)
  9:   3046.09   0.000016    0.08  0.000002  ( 0.000188 -0.000000 -0.001249)
 10:   3081.95   0.007384   37.31  0.000748  (-0.027343 -0.000006 -0.000058)
 11:   3082.17   0.007553   38.17  0.000765  (-0.000006  0.027653 -0.000000)

--------------------------
THERMOCHEMISTRY AT 298.15K
--------------------------

Temperature         ... 298.15 K
Pressure            ... 1.00 atm
Total Mass          ... 15.03 AMU

Throughout the following assumptions are being made:
  (1) The electronic state is orbitally nondegenerate
      but the spin degeneracy is treated
  (2) There are no thermally accessible electronically excited states
  (3) Hindered rotations indicated by low frequency modes are not
      treated as such but are treated as vibrations and this may
      cause some error
  (4) All equations used are the standard statistical mechanics
      equations for an ideal gas
  (5) All vibrations are strictly harmonic

freq.    1326.47  E(vib)   ...       0.01
freq.    1392.06  E(vib)   ...       0.00
freq.    1393.93  E(vib)   ...       0.00
freq.    3046.09  E(vib)   ...       0.00
freq.    3081.95  E(vib)   ...       0.00
freq.    3082.17  E(vib)   ...       0.00

------------
INNER ENERGY
------------

The inner energy is: U= E(el) + E(ZPE) + E(vib) + E(rot) + E(trans)
    E(el)   - is the total energy from the electronic structure calculation
              = E(kin-el) + E(nuc-el) + E(el-el) + E(nuc-nuc)
    E(ZPE)  - the the zero temperature vibrational energy from the frequency calculation
    E(vib)  - the the finite temperature correction to E(ZPE) due to population
              of excited vibrational states
    E(rot)  - is the rotational thermal energy
    E(trans)- is the translational thermal energy

Summary of contributions to the inner energy U:
Electronic energy                ...    -39.80738288 Eh
Zero point energy                ...      0.03035127 Eh      19.05 kcal/mol
Thermal vibrational correction   ...      0.00002537 Eh       0.02 kcal/mol
Thermal rotational correction    ...      0.00141627 Eh       0.89 kcal/mol
Thermal translational correction ...      0.00141627 Eh       0.89 kcal/mol
-----------------------------------------------------------------------
Total thermal energy                    -39.77417370 Eh

Summary of corrections to the electronic energy:
(perhaps to be used in another calculation)
Total thermal correction                  0.00285791 Eh       1.79 kcal/mol
Non-thermal (ZPE) correction              0.03035127 Eh      19.05 kcal/mol
-----------------------------------------------------------------------
Total correction                          0.03320919 Eh      20.84 kcal/mol

--------
ENTHALPY
--------

The enthalpy is H = U + kB*T
                kB is Boltzmann's constant
Total free energy                 ...    -39.77417370 Eh
Thermal Enthalpy correction       ...      0.00094421 Eh       0.59 kcal/mol
-----------------------------------------------------------------------
Total Enthalpy                    ...    -39.77322949 Eh

Note: Rotational entropy computed according to Herzberg
Infrared and Raman Spectra, Chapter V,1, Van Nostrand Reinhold, 1945
Point Group:  C3v, Symmetry Number:   3
Rotational constants in cm-1:     8.159554     8.159306     5.953738

Vibrational entropy computed according to the QRRHO of S. Grimme
Chem.Eur.J. 2012 18 9955

-------
ENTROPY
-------

The entropy contributions are T*S = T*(S(el)+S(vib)+S(rot)+S(trans))
     S(el)   - electronic entropy
     S(vib)  - vibrational entropy
     S(rot)  - rotational entropy
     S(trans)- translational entropy
The entropies will be listed as multiplied by the temperature to get
units of energy

Electronic entropy                ...      0.00065446 Eh      0.41 kcal/mol
Vibrational entropy               ...      0.00002922 Eh      0.02 kcal/mol
Rotational entropy                ...      0.00564930 Eh      3.54 kcal/mol
Translational entropy             ...      0.01618771 Eh     10.16 kcal/mol
-----------------------------------------------------------------------
Final entropy term                ...      0.02252069 Eh     14.13 kcal/mol

In case the symmetry of your molecule has not been determined correctly
or in case you have a reason to use a different symmetry number we print
out the resulting rotational entropy values for sn=1,12 :
 --------------------------------------------------------
|  sn= 1 | S(rot)=       0.00668659 Eh      4.20 kcal/mol|
|  sn= 2 | S(rot)=       0.00603214 Eh      3.79 kcal/mol|
|  sn= 3 | S(rot)=       0.00564930 Eh      3.54 kcal/mol|
|  sn= 4 | S(rot)=       0.00537768 Eh      3.37 kcal/mol|
|  sn= 5 | S(rot)=       0.00516699 Eh      3.24 kcal/mol|
|  sn= 6 | S(rot)=       0.00499485 Eh      3.13 kcal/mol|
|  sn= 7 | S(rot)=       0.00484930 Eh      3.04 kcal/mol|
|  sn= 8 | S(rot)=       0.00472322 Eh      2.96 kcal/mol|
|  sn= 9 | S(rot)=       0.00461201 Eh      2.89 kcal/mol|
|  sn=10 | S(rot)=       0.00451253 Eh      2.83 kcal/mol|
|  sn=11 | S(rot)=       0.00442254 Eh      2.78 kcal/mol|
|  sn=12 | S(rot)=       0.00434039 Eh      2.72 kcal/mol|
 --------------------------------------------------------

-------------------
GIBBS FREE ENERGY
-------------------

The Gibbs free energy is G = H - T*S

Total enthalpy                    ...    -39.77322949 Eh
Total entropy correction          ...     -0.02252069 Eh    -14.13 kcal/mol
-----------------------------------------------------------------------
Final Gibbs free energy         ...    -39.79575017 Eh

For completeness - the Gibbs free energy minus the electronic energy
G-E(el)                           ...      0.01163271 Eh      7.30 kcal/mol

                             ****ORCA TERMINATED NORMALLY****
TOTAL RUN TIME: 0 days 0 hours 1 minutes 14 seconds 497 msec
