                         Program Version 5.0.4 -  RELEASE  -
|  1> ! UKS TightSCF wB97x-D3 def2-TZVPD xyzfile opt freq
|  2>
|  3> # CH3 radical 107.0 degrees fixed
|  4>
|  5> %maxcore 1000
|  6> %pal
|  7> nprocs 18
|  8> end
|  9>
| 10> %geom Constraints
| 11>         { A * 0 * C }
| 12>     end
| 13> end
| 14> * xyz 0 2
| 15> C 0.00 0.00 0.00
| 16> H 1.0024710657 0.0000000000 -0.4018106051
| 17> H -0.5012355329 0.8681654095 -0.4018106051
| 18> H -0.5012355329 -0.8681654095 -0.4018106051
| 19> **                         ****END OF INPUT****
 Total Charge           Charge          ....    0
 Multiplicity           Mult            ....    2
 Number of Electrons    NEL             ....    9
Dispersion correction           -0.000010246
FINAL SINGLE POINT ENERGY       -39.823864977714
Dispersion correction            ... done
Dispersion correction           -0.000011115
FINAL SINGLE POINT ENERGY       -39.824114612267
Dispersion correction            ... done
                    ***********************HURRAY********************

CARTESIAN COORDINATES (ANGSTROEM)
---------------------------------
  C      0.000014    0.000000    0.003184
  H      1.013044    0.000000   -0.402868
  H     -0.506529    0.877352   -0.402874
  H     -0.506529   -0.877352   -0.402874

 Multiplicity           Mult            ....    2
 Number of Electrons    NEL             ....    9
 Basis Dimension        Dim             ....   64

ORBITAL ENERGIES
----------------
                 SPIN UP ORBITALS
  NO   OCC          E(Eh)            E(eV)
   0   1.0000     -10.295345      -280.1506
   1   1.0000      -0.809626       -22.0310
   2   1.0000      -0.502661       -13.6781
   3   1.0000      -0.502627       -13.6772
   4   1.0000      -0.366520        -9.9735
   5   0.0000       0.075544         2.0557
   6   0.0000       0.160878         4.3777
   7   0.0000       0.160885         4.3779
   8   0.0000       0.190949         5.1960
   9   0.0000       0.195380         5.3165

                 SPIN DOWN ORBITALS
  NO   OCC          E(Eh)            E(eV)
   0   1.0000     -10.284265      -279.8491
   1   1.0000      -0.770765       -20.9736
   2   1.0000      -0.488157       -13.2834
   3   1.0000      -0.488111       -13.2822
   4   0.0000      -0.018106        -0.4927
   5   0.0000       0.084462         2.2983
   6   0.0000       0.165839         4.5127
   7   0.0000       0.165842         4.5128
   8   0.0000       0.199611         5.4317

MULLIKEN ATOMIC CHARGES AND SPIN POPULATIONS
--------------------------------------------
   0 C :   -0.689116    0.885840
   1 H :    0.229414    0.038004
   2 H :    0.229852    0.038078
   3 H :    0.229850    0.038078
Sum of atomic charges         :   -0.0000000

LOEWDIN ATOMIC CHARGES AND SPIN POPULATIONS
-------------------------------------------
   0 C :    0.048941    0.837097
   1 H :   -0.016359    0.054309
   2 H :   -0.016291    0.054297
   3 H :   -0.016291    0.054297

  Mayer bond orders larger than 0.100000
B(  0-C ,  1-H ) :   0.9966 B(  0-C ,  2-H ) :   0.9960 B(  0-C ,  3-H ) :   0.9960

Dispersion correction           -0.000011146
FINAL SINGLE POINT ENERGY       -39.824114904758

DIPOLE MOMENT
-------------
                                X             Y             Z
Electronic contribution:      0.00009      -0.00000       0.64720
Nuclear contribution   :     -0.00004      -0.00000      -0.91299
                        -----------------------------------------
Total Dipole Moment    :      0.00005      -0.00000      -0.26580
                        -----------------------------------------
Magnitude (a.u.)       :      0.26580
Magnitude (Debye)      :      0.67560

Dispersion correction in the Hessian             ... done   (      0.1 sec)

VIBRATIONAL FREQUENCIES
-----------------------

Scaling factor for frequencies =  1.000000000  (already applied!)

   0:         0.00 cm**-1
   1:         0.00 cm**-1
   2:         0.00 cm**-1
   3:         0.00 cm**-1
   4:         0.00 cm**-1
   5:         0.00 cm**-1
   6:      1194.59 cm**-1
   7:      1411.15 cm**-1
   8:      1413.62 cm**-1
   9:      3070.09 cm**-1
  10:      3163.65 cm**-1
  11:      3163.79 cm**-1

IR SPECTRUM
-----------

 Mode   freq       eps      Int      T**2         TX        TY        TZ
       cm**-1   L/(mol*cm) km/mol    a.u.
----------------------------------------------------------------------------
  6:   1194.59   0.002986   15.09  0.000780  ( 0.000028 -0.000000  0.027928)
  7:   1411.15   0.000695    3.51  0.000154  ( 0.000000 -0.012393 -0.000000)
  8:   1413.62   0.000680    3.44  0.000150  (-0.012247 -0.000000 -0.000312)
  9:   3070.09   0.000017    0.09  0.000002  ( 0.000059  0.000000  0.001314)
 10:   3163.65   0.005011   25.32  0.000494  ( 0.000022  0.022233  0.000000)
 11:   3163.79   0.004900   24.76  0.000483  ( 0.021985 -0.000022 -0.000015)

--------------------------
THERMOCHEMISTRY AT 298.15K
--------------------------

Temperature         ... 298.15 K
Pressure            ... 1.00 atm
Total Mass          ... 15.03 AMU

Throughout the following assumptions are being made:
  (1) The electronic state is orbitally nondegenerate
      but the spin degeneracy is treated
  (2) There are no thermally accessible electronically excited states
  (3) Hindered rotations indicated by low frequency modes are not
      treated as such but are treated as vibrations and this may
      cause some error
  (4) All equations used are the standard statistical mechanics
      equations for an ideal gas
  (5) All vibrations are strictly harmonic

freq.    1194.59  E(vib)   ...       0.01
freq.    1411.15  E(vib)   ...       0.00
freq.    1413.62  E(vib)   ...       0.00
freq.    3070.09  E(vib)   ...       0.00
freq.    3163.65  E(vib)   ...       0.00
freq.    3163.79  E(vib)   ...       0.00

------------
INNER ENERGY
------------

The inner energy is: U= E(el) + E(ZPE) + E(vib) + E(rot) + E(trans)
    E(el)   - is the total energy from the electronic structure calculation
              = E(kin-el) + E(nuc-el) + E(el-el) + E(nuc-nuc)
    E(ZPE)  - the the zero temperature vibrational energy from the frequency calculation
    E(vib)  - the the finite temperature correction to E(ZPE) due to population
              of excited vibrational states
    E(rot)  - is the rotational thermal energy
    E(trans)- is the translational thermal energy

Summary of contributions to the inner energy U:
Electronic energy                ...    -39.82411490 Eh
Zero point energy                ...      0.03056592 Eh      19.18 kcal/mol
Thermal vibrational correction   ...      0.00003127 Eh       0.02 kcal/mol
Thermal rotational correction    ...      0.00141627 Eh       0.89 kcal/mol
Thermal translational correction ...      0.00141627 Eh       0.89 kcal/mol
-----------------------------------------------------------------------
Total thermal energy                    -39.79068517 Eh

Summary of corrections to the electronic energy:
(perhaps to be used in another calculation)
Total thermal correction                  0.00286381 Eh       1.80 kcal/mol
Non-thermal (ZPE) correction              0.03056592 Eh      19.18 kcal/mol
-----------------------------------------------------------------------
Total correction                          0.03342973 Eh      20.98 kcal/mol

--------
ENTHALPY
--------

The enthalpy is H = U + kB*T
                kB is Boltzmann's constant
Total free energy                 ...    -39.79068517 Eh
Thermal Enthalpy correction       ...      0.00094421 Eh       0.59 kcal/mol
-----------------------------------------------------------------------
Total Enthalpy                    ...    -39.78974096 Eh

Note: Rotational entropy computed according to Herzberg
Infrared and Raman Spectra, Chapter V,1, Van Nostrand Reinhold, 1945
Point Group:  C3v, Symmetry Number:   3
Rotational constants in cm-1:     8.644788     8.644376     5.431770

Vibrational entropy computed according to the QRRHO of S. Grimme
Chem.Eur.J. 2012 18 9955

-------
ENTROPY
-------

The entropy contributions are T*S = T*(S(el)+S(vib)+S(rot)+S(trans))
     S(el)   - electronic entropy
     S(vib)  - vibrational entropy
     S(rot)  - rotational entropy
     S(trans)- translational entropy
The entropies will be listed as multiplied by the temperature to get
units of energy

Electronic entropy                ...      0.00065446 Eh      0.41 kcal/mol
Vibrational entropy               ...      0.00003632 Eh      0.02 kcal/mol
Rotational entropy                ...      0.00563808 Eh      3.54 kcal/mol
Translational entropy             ...      0.01618771 Eh     10.16 kcal/mol
-----------------------------------------------------------------------
Final entropy term                ...      0.02251657 Eh     14.13 kcal/mol

In case the symmetry of your molecule has not been determined correctly
or in case you have a reason to use a different symmetry number we print
out the resulting rotational entropy values for sn=1,12 :
 --------------------------------------------------------
|  sn= 1 | S(rot)=       0.00667537 Eh      4.19 kcal/mol|
|  sn= 2 | S(rot)=       0.00602092 Eh      3.78 kcal/mol|
|  sn= 3 | S(rot)=       0.00563808 Eh      3.54 kcal/mol|
|  sn= 4 | S(rot)=       0.00536646 Eh      3.37 kcal/mol|
|  sn= 5 | S(rot)=       0.00515577 Eh      3.24 kcal/mol|
|  sn= 6 | S(rot)=       0.00498363 Eh      3.13 kcal/mol|
|  sn= 7 | S(rot)=       0.00483808 Eh      3.04 kcal/mol|
|  sn= 8 | S(rot)=       0.00471200 Eh      2.96 kcal/mol|
|  sn= 9 | S(rot)=       0.00460080 Eh      2.89 kcal/mol|
|  sn=10 | S(rot)=       0.00450132 Eh      2.82 kcal/mol|
|  sn=11 | S(rot)=       0.00441133 Eh      2.77 kcal/mol|
|  sn=12 | S(rot)=       0.00432917 Eh      2.72 kcal/mol|
 --------------------------------------------------------

-------------------
GIBBS FREE ENERGY
-------------------

The Gibbs free energy is G = H - T*S

Total enthalpy                    ...    -39.78974096 Eh
Total entropy correction          ...     -0.02251657 Eh    -14.13 kcal/mol
-----------------------------------------------------------------------
Final Gibbs free energy         ...    -39.81225753 Eh

For completeness - the Gibbs free energy minus the electronic energy
G-E(el)                           ...      0.01185737 Eh      7.44 kcal/mol

                             ****ORCA TERMINATED NORMALLY****
TOTAL RUN TIME: 0 days 0 hours 1 minutes 23 seconds 17 msec
