                         Program Version 5.0.4 -  RELEASE  -
|  1> # CH3 radical
|  2>
|  3> ! UKS TightSCF wB97x-D3 def2-TZVPD opt freq
|  4>
|  5> %maxcore 1000
|  6> %pal
|  7> nprocs 18
|  8> end
|  9>
| 10> * xyz 0 2
| 11>   C      -0.000015      0.000052     -0.000264
| 12>   H      -0.421435      0.994660     -0.000560
| 13>   H      -0.651294     -0.861705     -0.000561
| 14>   H       1.071993     -0.132361     -0.000561
| 15> *                            ****END OF INPUT****
 Total Charge           Charge          ....    0
 Multiplicity           Mult            ....    2
 Number of Electrons    NEL             ....    9
Dispersion correction           -0.000018456
FINAL SINGLE POINT ENERGY       -39.839603819631
Dispersion correction            ... done
Dispersion correction           -0.000018365
FINAL SINGLE POINT ENERGY       -39.839604808901
Dispersion correction            ... done
                    ***********************HURRAY********************

CARTESIAN COORDINATES (ANGSTROEM)
---------------------------------
  C     -0.000170    0.000224   -0.000430
  H     -0.421116    0.994220   -0.000505
  H     -0.650607   -0.861336   -0.000506
  H      1.071142   -0.132461   -0.000506

 Multiplicity           Mult            ....    2
 Number of Electrons    NEL             ....    9
 Basis Dimension        Dim             ....   64

ORBITAL ENERGIES
----------------
                 SPIN UP ORBITALS
  NO   OCC          E(Eh)            E(eV)
   0   1.0000     -10.285305      -279.8774
   1   1.0000      -0.802342       -21.8328
   2   1.0000      -0.521346       -14.1866
   3   1.0000      -0.521317       -14.1858
   4   1.0000      -0.326590        -8.8870
   5   0.0000       0.076397         2.0789
   6   0.0000       0.161164         4.3855
   7   0.0000       0.161168         4.3856
   8   0.0000       0.196051         5.3348
   9   0.0000       0.205837         5.6011

                 SPIN DOWN ORBITALS
  NO   OCC          E(Eh)            E(eV)
   0   1.0000     -10.275270      -279.6043
   1   1.0000      -0.756655       -20.5896
   2   1.0000      -0.508905       -13.8480
   3   1.0000      -0.508881       -13.8474
   4   0.0000       0.010473         0.2850
   5   0.0000       0.086649         2.3578
   6   0.0000       0.164615         4.4794
   7   0.0000       0.164617         4.4795
   8   0.0000       0.205802         5.6002

MULLIKEN ATOMIC CHARGES AND SPIN POPULATIONS
--------------------------------------------
   0 C :   -0.767912    0.925880
   1 H :    0.256059    0.024630
   2 H :    0.255859    0.024736
   3 H :    0.255994    0.024755
Sum of atomic charges         :   -0.0000000

LOEWDIN ATOMIC CHARGES AND SPIN POPULATIONS
-------------------------------------------
   0 C :    0.060594    0.835552
   1 H :   -0.020222    0.054797
   2 H :   -0.020173    0.054823
   3 H :   -0.020198    0.054828

  Mayer bond orders larger than 0.100000
B(  0-C ,  1-H ) :   0.9403 B(  0-C ,  2-H ) :   0.9406 B(  0-C ,  3-H ) :   0.9405

Dispersion correction           -0.000018362
FINAL SINGLE POINT ENERGY       -39.839604849693

DIPOLE MOMENT
-------------
                                X             Y             Z
Electronic contribution:     -0.00003       0.00008       0.00011
Nuclear contribution   :     -0.00005      -0.00019      -0.00017
                        -----------------------------------------
Total Dipole Moment    :     -0.00008      -0.00010      -0.00006
                        -----------------------------------------
Magnitude (a.u.)       :      0.00015
Magnitude (Debye)      :      0.00037

Dispersion correction in the Hessian             ... done   (      0.1 sec)

VIBRATIONAL FREQUENCIES
-----------------------

Scaling factor for frequencies =  1.000000000  (already applied!)

   0:         0.00 cm**-1
   1:         0.00 cm**-1
   2:         0.00 cm**-1
   3:         0.00 cm**-1
   4:         0.00 cm**-1
   5:         0.00 cm**-1
   6:       523.35 cm**-1
   7:      1406.06 cm**-1
   8:      1411.10 cm**-1
   9:      3133.85 cm**-1
  10:      3313.65 cm**-1
  11:      3314.99 cm**-1

IR SPECTRUM
-----------

 Mode   freq       eps      Int      T**2         TX        TY        TZ
       cm**-1   L/(mol*cm) km/mol    a.u.
----------------------------------------------------------------------------
  6:    523.35   0.016013   80.92  0.009548  ( 0.000000 -0.000000  0.097713)
  7:   1406.06   0.000552    2.79  0.000122  ( 0.006759  0.008761 -0.000000)
  8:   1411.10   0.000559    2.83  0.000124  ( 0.008803 -0.006795 -0.000001)
  9:   3133.85   0.000000    0.00  0.000000  ( 0.000050 -0.000091 -0.000000)
 10:   3313.65   0.000884    4.47  0.000083  ( 0.008483  0.003363 -0.000000)
 11:   3314.99   0.000836    4.23  0.000079  (-0.003279  0.008244 -0.000000)

--------------------------
THERMOCHEMISTRY AT 298.15K
--------------------------

Temperature         ... 298.15 K
Pressure            ... 1.00 atm
Total Mass          ... 15.03 AMU

Throughout the following assumptions are being made:
  (1) The electronic state is orbitally nondegenerate
      but the spin degeneracy is treated
  (2) There are no thermally accessible electronically excited states
  (3) Hindered rotations indicated by low frequency modes are not
      treated as such but are treated as vibrations and this may
      cause some error
  (4) All equations used are the standard statistical mechanics
      equations for an ideal gas
  (5) All vibrations are strictly harmonic

freq.     523.35  E(vib)   ...       0.13
freq.    1406.06  E(vib)   ...       0.00
freq.    1411.10  E(vib)   ...       0.00
freq.    3133.85  E(vib)   ...       0.00
freq.    3313.65  E(vib)   ...       0.00
freq.    3314.99  E(vib)   ...       0.00

------------
INNER ENERGY
------------

The inner energy is: U= E(el) + E(ZPE) + E(vib) + E(rot) + E(trans)
    E(el)   - is the total energy from the electronic structure calculation
              = E(kin-el) + E(nuc-el) + E(el-el) + E(nuc-nuc)
    E(ZPE)  - the the zero temperature vibrational energy from the frequency calculation
    E(vib)  - the the finite temperature correction to E(ZPE) due to population
              of excited vibrational states
    E(rot)  - is the rotational thermal energy
    E(trans)- is the translational thermal energy

Summary of contributions to the inner energy U:
Electronic energy                ...    -39.83960485 Eh
Zero point energy                ...      0.02985084 Eh      18.73 kcal/mol
Thermal vibrational correction   ...      0.00022177 Eh       0.14 kcal/mol
Thermal rotational correction    ...      0.00141627 Eh       0.89 kcal/mol
Thermal translational correction ...      0.00141627 Eh       0.89 kcal/mol
-----------------------------------------------------------------------
Total thermal energy                    -39.80669969 Eh

Summary of corrections to the electronic energy:
(perhaps to be used in another calculation)
Total thermal correction                  0.00305432 Eh       1.92 kcal/mol
Non-thermal (ZPE) correction              0.02985084 Eh      18.73 kcal/mol
-----------------------------------------------------------------------
Total correction                          0.03290516 Eh      20.65 kcal/mol

--------
ENTHALPY
--------

The enthalpy is H = U + kB*T
                kB is Boltzmann's constant
Total free energy                 ...    -39.80669969 Eh
Thermal Enthalpy correction       ...      0.00094421 Eh       0.59 kcal/mol
-----------------------------------------------------------------------
Total Enthalpy                    ...    -39.80575548 Eh

Note: Rotational entropy computed according to Herzberg
Infrared and Raman Spectra, Chapter V,1, Van Nostrand Reinhold, 1945
Point Group:  Cs, Symmetry Number:   1
Rotational constants in cm-1:     9.568693     9.566744     4.783859

Vibrational entropy computed according to the QRRHO of S. Grimme
Chem.Eur.J. 2012 18 9955

-------
ENTROPY
-------

The entropy contributions are T*S = T*(S(el)+S(vib)+S(rot)+S(trans))
     S(el)   - electronic entropy
     S(vib)  - vibrational entropy
     S(rot)  - rotational entropy
     S(trans)- translational entropy
The entropies will be listed as multiplied by the temperature to get
units of energy

Electronic entropy                ...      0.00065446 Eh      0.41 kcal/mol
Vibrational entropy               ...      0.00030302 Eh      0.19 kcal/mol
Rotational entropy                ...      0.00663954 Eh      4.17 kcal/mol
Translational entropy             ...      0.01618771 Eh     10.16 kcal/mol
-----------------------------------------------------------------------
Final entropy term                ...      0.02378472 Eh     14.93 kcal/mol

In case the symmetry of your molecule has not been determined correctly
or in case you have a reason to use a different symmetry number we print
out the resulting rotational entropy values for sn=1,12 :
 --------------------------------------------------------
|  sn= 1 | S(rot)=       0.00663954 Eh      4.17 kcal/mol|
|  sn= 2 | S(rot)=       0.00598508 Eh      3.76 kcal/mol|
|  sn= 3 | S(rot)=       0.00560225 Eh      3.52 kcal/mol|
|  sn= 4 | S(rot)=       0.00533063 Eh      3.35 kcal/mol|
|  sn= 5 | S(rot)=       0.00511994 Eh      3.21 kcal/mol|
|  sn= 6 | S(rot)=       0.00494779 Eh      3.10 kcal/mol|
|  sn= 7 | S(rot)=       0.00480225 Eh      3.01 kcal/mol|
|  sn= 8 | S(rot)=       0.00467617 Eh      2.93 kcal/mol|
|  sn= 9 | S(rot)=       0.00456496 Eh      2.86 kcal/mol|
|  sn=10 | S(rot)=       0.00446548 Eh      2.80 kcal/mol|
|  sn=11 | S(rot)=       0.00437549 Eh      2.75 kcal/mol|
|  sn=12 | S(rot)=       0.00429334 Eh      2.69 kcal/mol|
 --------------------------------------------------------

-------------------
GIBBS FREE ENERGY
-------------------

The Gibbs free energy is G = H - T*S

Total enthalpy                    ...    -39.80575548 Eh
Total entropy correction          ...     -0.02378472 Eh    -14.93 kcal/mol
-----------------------------------------------------------------------
Final Gibbs free energy         ...    -39.82954020 Eh

For completeness - the Gibbs free energy minus the electronic energy
G-E(el)                           ...      0.01006465 Eh      6.32 kcal/mol

                             ****ORCA TERMINATED NORMALLY****
TOTAL RUN TIME: 0 days 0 hours 1 minutes 47 seconds 766 msec
