                         Program Version 5.0.4 -  RELEASE  -
|  1> ! UKS TightSCF wB97x-D3 def2-TZVPD xyzfile opt freq
|  2>
|  3> # CH3 radical 113.0 degrees fixed
|  4>
|  5> %maxcore 1000
|  6> %pal
|  7> nprocs 18
|  8> end
|  9>
| 10> %geom Constraints
| 11>         { A * 0 * C }
| 12>     end
| 13> end
| 14> * xyz 0 2
| 15> C 0.00 0.00 0.00
| 16> H 1.0399194803 0.0000000000 -0.2914918086
| 17> H -0.5199597402 0.9005966878 -0.2914918086
| 18> H -0.5199597402 -0.9005966878 -0.2914918086
| 19> **                         ****END OF INPUT****
 Total Charge           Charge          ....    0
 Multiplicity           Mult            ....    2
 Number of Electrons    NEL             ....    9
Dispersion correction           -0.000013678
FINAL SINGLE POINT ENERGY       -39.833322224867
Dispersion correction            ... done
Dispersion correction           -0.000014302
FINAL SINGLE POINT ENERGY       -39.833396456204
Dispersion correction            ... done
                    ***********************HURRAY********************

CARTESIAN COORDINATES (ANGSTROEM)
---------------------------------
  C     -0.000005   -0.000000    0.001248
  H      1.045864   -0.000000   -0.291909
  H     -0.522930    0.905734   -0.291907
  H     -0.522930   -0.905734   -0.291907

 Multiplicity           Mult            ....    2
 Number of Electrons    NEL             ....    9
 Basis Dimension        Dim             ....   64

ORBITAL ENERGIES
----------------
                 SPIN UP ORBITALS
  NO   OCC          E(Eh)            E(eV)
   0   1.0000     -10.290810      -280.0272
   1   1.0000      -0.805874       -21.9289
   2   1.0000      -0.511667       -13.9232
   3   1.0000      -0.511640       -13.9224
   4   1.0000      -0.348405        -9.4806
   5   0.0000       0.076043         2.0692
   6   0.0000       0.161128         4.3845
   7   0.0000       0.161139         4.3848
   8   0.0000       0.198426         5.3994
   9   0.0000       0.198436         5.3997

                 SPIN DOWN ORBITALS
  NO   OCC          E(Eh)            E(eV)
   0   1.0000     -10.280208      -279.7387
   1   1.0000      -0.764192       -20.7947
   2   1.0000      -0.498058       -13.5528
   3   1.0000      -0.497995       -13.5511
   4   0.0000      -0.004466        -0.1215
   5   0.0000       0.085624         2.3300
   6   0.0000       0.165622         4.5068
   7   0.0000       0.165635         4.5072
   8   0.0000       0.200584         5.4582

MULLIKEN ATOMIC CHARGES AND SPIN POPULATIONS
--------------------------------------------
   0 C :   -0.712421    0.893223
   1 H :    0.237287    0.035562
   2 H :    0.237565    0.035608
   3 H :    0.237569    0.035607
Sum of atomic charges         :   -0.0000000

LOEWDIN ATOMIC CHARGES AND SPIN POPULATIONS
-------------------------------------------
   0 C :    0.054554    0.835659
   1 H :   -0.018185    0.054797
   2 H :   -0.018184    0.054772
   3 H :   -0.018184    0.054772

  Mayer bond orders larger than 0.100000
B(  0-C ,  1-H ) :   0.9763 B(  0-C ,  2-H ) :   0.9759 B(  0-C ,  3-H ) :   0.9759

Dispersion correction           -0.000014315
FINAL SINGLE POINT ENERGY       -39.833396485992

DIPOLE MOMENT
-------------
                                X             Y             Z
Electronic contribution:      0.00018       0.00000       0.44529
Nuclear contribution   :      0.00001       0.00000      -0.65914
                        -----------------------------------------
Total Dipole Moment    :      0.00020       0.00000      -0.21386
                        -----------------------------------------
Magnitude (a.u.)       :      0.21386
Magnitude (Debye)      :      0.54358

Dispersion correction in the Hessian             ... done   (      0.1 sec)

VIBRATIONAL FREQUENCIES
-----------------------

Scaling factor for frequencies =  1.000000000  (already applied!)

   0:         0.00 cm**-1
   1:         0.00 cm**-1
   2:         0.00 cm**-1
   3:         0.00 cm**-1
   4:         0.00 cm**-1
   5:         0.00 cm**-1
   6:      1032.06 cm**-1
   7:      1420.06 cm**-1
   8:      1425.17 cm**-1
   9:      3093.82 cm**-1
  10:      3229.98 cm**-1
  11:      3230.32 cm**-1

IR SPECTRUM
-----------

 Mode   freq       eps      Int      T**2         TX        TY        TZ
       cm**-1   L/(mol*cm) km/mol    a.u.
----------------------------------------------------------------------------
  6:   1032.06   0.006083   30.74  0.001839  (-0.000090  0.000000  0.042888)
  7:   1420.06   0.000592    2.99  0.000130  (-0.011404  0.000000  0.000039)
  8:   1425.17   0.000588    2.97  0.000129  ( 0.000000  0.011346 -0.000000)
  9:   3093.82   0.000012    0.06  0.000001  ( 0.000039 -0.000000 -0.001105)
 10:   3229.98   0.002938   14.85  0.000284  (-0.016848  0.000002  0.000008)
 11:   3230.32   0.002956   14.94  0.000286  (-0.000002 -0.016900 -0.000000)

--------------------------
THERMOCHEMISTRY AT 298.15K
--------------------------

Temperature         ... 298.15 K
Pressure            ... 1.00 atm
Total Mass          ... 15.03 AMU

Throughout the following assumptions are being made:
  (1) The electronic state is orbitally nondegenerate
      but the spin degeneracy is treated
  (2) There are no thermally accessible electronically excited states
  (3) Hindered rotations indicated by low frequency modes are not
      treated as such but are treated as vibrations and this may
      cause some error
  (4) All equations used are the standard statistical mechanics
      equations for an ideal gas
  (5) All vibrations are strictly harmonic

freq.    1032.06  E(vib)   ...       0.02
freq.    1420.06  E(vib)   ...       0.00
freq.    1425.17  E(vib)   ...       0.00
freq.    3093.82  E(vib)   ...       0.00
freq.    3229.98  E(vib)   ...       0.00
freq.    3230.32  E(vib)   ...       0.00

------------
INNER ENERGY
------------

The inner energy is: U= E(el) + E(ZPE) + E(vib) + E(rot) + E(trans)
    E(el)   - is the total energy from the electronic structure calculation
              = E(kin-el) + E(nuc-el) + E(el-el) + E(nuc-nuc)
    E(ZPE)  - the the zero temperature vibrational energy from the frequency calculation
    E(vib)  - the the finite temperature correction to E(ZPE) due to population
              of excited vibrational states
    E(rot)  - is the rotational thermal energy
    E(trans)- is the translational thermal energy

Summary of contributions to the inner energy U:
Electronic energy                ...    -39.83339649 Eh
Zero point energy                ...      0.03059900 Eh      19.20 kcal/mol
Thermal vibrational correction   ...      0.00004610 Eh       0.03 kcal/mol
Thermal rotational correction    ...      0.00141627 Eh       0.89 kcal/mol
Thermal translational correction ...      0.00141627 Eh       0.89 kcal/mol
-----------------------------------------------------------------------
Total thermal energy                    -39.79991884 Eh

Summary of corrections to the electronic energy:
(perhaps to be used in another calculation)
Total thermal correction                  0.00287864 Eh       1.81 kcal/mol
Non-thermal (ZPE) correction              0.03059900 Eh      19.20 kcal/mol
-----------------------------------------------------------------------
Total correction                          0.03347764 Eh      21.01 kcal/mol

--------
ENTHALPY
--------

The enthalpy is H = U + kB*T
                kB is Boltzmann's constant
Total free energy                 ...    -39.79991884 Eh
Thermal Enthalpy correction       ...      0.00094421 Eh       0.59 kcal/mol
-----------------------------------------------------------------------
Total Enthalpy                    ...    -39.79897463 Eh

Note: Rotational entropy computed according to Herzberg
Infrared and Raman Spectra, Chapter V,1, Van Nostrand Reinhold, 1945
Point Group:  C3v, Symmetry Number:   3
Rotational constants in cm-1:     9.056210     9.056034     5.096483

Vibrational entropy computed according to the QRRHO of S. Grimme
Chem.Eur.J. 2012 18 9955

-------
ENTROPY
-------

The entropy contributions are T*S = T*(S(el)+S(vib)+S(rot)+S(trans))
     S(el)   - electronic entropy
     S(vib)  - vibrational entropy
     S(rot)  - rotational entropy
     S(trans)- translational entropy
The entropies will be listed as multiplied by the temperature to get
units of energy

Electronic entropy                ...      0.00065446 Eh      0.41 kcal/mol
Vibrational entropy               ...      0.00005460 Eh      0.03 kcal/mol
Rotational entropy                ...      0.00562425 Eh      3.53 kcal/mol
Translational entropy             ...      0.01618771 Eh     10.16 kcal/mol
-----------------------------------------------------------------------
Final entropy term                ...      0.02252101 Eh     14.13 kcal/mol

In case the symmetry of your molecule has not been determined correctly
or in case you have a reason to use a different symmetry number we print
out the resulting rotational entropy values for sn=1,12 :
 --------------------------------------------------------
|  sn= 1 | S(rot)=       0.00666154 Eh      4.18 kcal/mol|
|  sn= 2 | S(rot)=       0.00600708 Eh      3.77 kcal/mol|
|  sn= 3 | S(rot)=       0.00562425 Eh      3.53 kcal/mol|
|  sn= 4 | S(rot)=       0.00535263 Eh      3.36 kcal/mol|
|  sn= 5 | S(rot)=       0.00514194 Eh      3.23 kcal/mol|
|  sn= 6 | S(rot)=       0.00496979 Eh      3.12 kcal/mol|
|  sn= 7 | S(rot)=       0.00482425 Eh      3.03 kcal/mol|
|  sn= 8 | S(rot)=       0.00469817 Eh      2.95 kcal/mol|
|  sn= 9 | S(rot)=       0.00458696 Eh      2.88 kcal/mol|
|  sn=10 | S(rot)=       0.00448748 Eh      2.82 kcal/mol|
|  sn=11 | S(rot)=       0.00439749 Eh      2.76 kcal/mol|
|  sn=12 | S(rot)=       0.00431534 Eh      2.71 kcal/mol|
 --------------------------------------------------------

-------------------
GIBBS FREE ENERGY
-------------------

The Gibbs free energy is G = H - T*S

Total enthalpy                    ...    -39.79897463 Eh
Total entropy correction          ...     -0.02252101 Eh    -14.13 kcal/mol
-----------------------------------------------------------------------
Final Gibbs free energy         ...    -39.82149565 Eh

For completeness - the Gibbs free energy minus the electronic energy
G-E(el)                           ...      0.01190084 Eh      7.47 kcal/mol

                             ****ORCA TERMINATED NORMALLY****
TOTAL RUN TIME: 0 days 0 hours 1 minutes 32 seconds 824 msec
