                         Program Version 5.0.4 -  RELEASE  -
|  1> ! UKS TightSCF wB97x-D3 def2-TZVPD xyzfile opt freq
|  2>
|  3> # CH3 radical 111.0 degrees fixed
|  4>
|  5> %maxcore 1000
|  6> %pal
|  7> nprocs 18
|  8> end
|  9>
| 10> %geom Constraints
| 11>         { A * 0 * C }
| 12>     end
| 13> end
| 14> * xyz 0 2
| 15> C 0.00 0.00 0.00
| 16> H 1.0277484700 0.0000000000 -0.3318630477
| 17> H -0.5138742350 0.8900562837 -0.3318630477
| 18> H -0.5138742350 -0.8900562837 -0.3318630477
| 19> **                         ****END OF INPUT****
 Total Charge           Charge          ....    0
 Multiplicity           Mult            ....    2
 Number of Electrons    NEL             ....    9
Dispersion correction           -0.000012466
FINAL SINGLE POINT ENERGY       -39.830587258807
Dispersion correction            ... done
Dispersion correction           -0.000013199
FINAL SINGLE POINT ENERGY       -39.830709638912
Dispersion correction            ... done
                    ***********************HURRAY********************

CARTESIAN COORDINATES (ANGSTROEM)
---------------------------------
  C      0.000000   -0.000000    0.001831
  H      1.035308   -0.000000   -0.332473
  H     -0.517654    0.896603   -0.332473
  H     -0.517654   -0.896603   -0.332473

 Multiplicity           Mult            ....    2
 Number of Electrons    NEL             ....    9
 Basis Dimension        Dim             ....   64

ORBITAL ENERGIES
----------------
                 SPIN UP ORBITALS
  NO   OCC          E(Eh)            E(eV)
   0   1.0000     -10.292323      -280.0683
   1   1.0000      -0.807041       -21.9607
   2   1.0000      -0.508734       -13.8434
   3   1.0000      -0.508709       -13.8427
   4   1.0000      -0.354498        -9.6464
   5   0.0000       0.075904         2.0655
   6   0.0000       0.161061         4.3827
   7   0.0000       0.161071         4.3830
   8   0.0000       0.197183         5.3656
   9   0.0000       0.197192         5.3659

                 SPIN DOWN ORBITALS
  NO   OCC          E(Eh)            E(eV)
   0   1.0000     -10.281562      -279.7755
   1   1.0000      -0.766343       -20.8533
   2   1.0000      -0.494828       -13.4650
   3   1.0000      -0.494754       -13.4629
   4   0.0000      -0.008949        -0.2435
   5   0.0000       0.085268         2.3203
   6   0.0000       0.165729         4.5097
   7   0.0000       0.165743         4.5101
   8   0.0000       0.200051         5.4437

MULLIKEN ATOMIC CHARGES AND SPIN POPULATIONS
--------------------------------------------
   0 C :   -0.704387    0.888886
   1 H :    0.234569    0.037001
   2 H :    0.234907    0.037057
   3 H :    0.234910    0.037056
Sum of atomic charges         :   -0.0000000

LOEWDIN ATOMIC CHARGES AND SPIN POPULATIONS
-------------------------------------------
   0 C :    0.052681    0.835995
   1 H :   -0.017574    0.054683
   2 H :   -0.017554    0.054661
   3 H :   -0.017554    0.054661

  Mayer bond orders larger than 0.100000
B(  0-C ,  1-H ) :   0.9837 B(  0-C ,  2-H ) :   0.9832 B(  0-C ,  3-H ) :   0.9832

Dispersion correction           -0.000013218
FINAL SINGLE POINT ENERGY       -39.830709715227

DIPOLE MOMENT
-------------
                                X             Y             Z
Electronic contribution:      0.00019       0.00000       0.51685
Nuclear contribution   :     -0.00000       0.00000      -0.75166
                        -----------------------------------------
Total Dipole Moment    :      0.00019       0.00000      -0.23481
                        -----------------------------------------
Magnitude (a.u.)       :      0.23481
Magnitude (Debye)      :      0.59684

Dispersion correction in the Hessian             ... done   (      0.1 sec)

VIBRATIONAL FREQUENCIES
-----------------------

Scaling factor for frequencies =  1.000000000  (already applied!)

   0:         0.00 cm**-1
   1:         0.00 cm**-1
   2:         0.00 cm**-1
   3:         0.00 cm**-1
   4:         0.00 cm**-1
   5:         0.00 cm**-1
   6:      1098.54 cm**-1
   7:      1419.96 cm**-1
   8:      1421.64 cm**-1
   9:      3085.10 cm**-1
  10:      3207.59 cm**-1
  11:      3207.64 cm**-1

IR SPECTRUM
-----------

 Mode   freq       eps      Int      T**2         TX        TY        TZ
       cm**-1   L/(mol*cm) km/mol    a.u.
----------------------------------------------------------------------------
  6:   1098.54   0.004742   23.97  0.001347  ( 0.000089 -0.000000 -0.036704)
  7:   1419.96   0.000610    3.08  0.000134  (-0.011570  0.000000 -0.000339)
  8:   1421.64   0.000613    3.10  0.000135  ( 0.000000  0.011600 -0.000000)
  9:   3085.10   0.000015    0.07  0.000001  ( 0.000009 -0.000000  0.001214)
 10:   3207.59   0.003587   18.13  0.000349  ( 0.018681 -0.000032 -0.000024)
 11:   3207.64   0.003634   18.37  0.000354  ( 0.000031  0.018804 -0.000000)

--------------------------
THERMOCHEMISTRY AT 298.15K
--------------------------

Temperature         ... 298.15 K
Pressure            ... 1.00 atm
Total Mass          ... 15.03 AMU

Throughout the following assumptions are being made:
  (1) The electronic state is orbitally nondegenerate
      but the spin degeneracy is treated
  (2) There are no thermally accessible electronically excited states
  (3) Hindered rotations indicated by low frequency modes are not
      treated as such but are treated as vibrations and this may
      cause some error
  (4) All equations used are the standard statistical mechanics
      equations for an ideal gas
  (5) All vibrations are strictly harmonic

freq.    1098.54  E(vib)   ...       0.02
freq.    1419.96  E(vib)   ...       0.00
freq.    1421.64  E(vib)   ...       0.00
freq.    3085.10  E(vib)   ...       0.00
freq.    3207.59  E(vib)   ...       0.00
freq.    3207.64  E(vib)   ...       0.00

------------
INNER ENERGY
------------

The inner energy is: U= E(el) + E(ZPE) + E(vib) + E(rot) + E(trans)
    E(el)   - is the total energy from the electronic structure calculation
              = E(kin-el) + E(nuc-el) + E(el-el) + E(nuc-nuc)
    E(ZPE)  - the the zero temperature vibrational energy from the frequency calculation
    E(vib)  - the the finite temperature correction to E(ZPE) due to population
              of excited vibrational states
    E(rot)  - is the rotational thermal energy
    E(trans)- is the translational thermal energy

Summary of contributions to the inner energy U:
Electronic energy                ...    -39.83070972 Eh
Zero point energy                ...      0.03061968 Eh      19.21 kcal/mol
Thermal vibrational correction   ...      0.00003874 Eh       0.02 kcal/mol
Thermal rotational correction    ...      0.00141627 Eh       0.89 kcal/mol
Thermal translational correction ...      0.00141627 Eh       0.89 kcal/mol
-----------------------------------------------------------------------
Total thermal energy                    -39.79721876 Eh

Summary of corrections to the electronic energy:
(perhaps to be used in another calculation)
Total thermal correction                  0.00287128 Eh       1.80 kcal/mol
Non-thermal (ZPE) correction              0.03061968 Eh      19.21 kcal/mol
-----------------------------------------------------------------------
Total correction                          0.03349096 Eh      21.02 kcal/mol

--------
ENTHALPY
--------

The enthalpy is H = U + kB*T
                kB is Boltzmann's constant
Total free energy                 ...    -39.79721876 Eh
Thermal Enthalpy correction       ...      0.00094421 Eh       0.59 kcal/mol
-----------------------------------------------------------------------
Total Enthalpy                    ...    -39.79627455 Eh

Note: Rotational entropy computed according to Herzberg
Infrared and Raman Spectra, Chapter V,1, Van Nostrand Reinhold, 1945
Point Group:  C3v, Symmetry Number:   3
Rotational constants in cm-1:     8.916362     8.916358     5.200870

Vibrational entropy computed according to the QRRHO of S. Grimme
Chem.Eur.J. 2012 18 9955

-------
ENTROPY
-------

The entropy contributions are T*S = T*(S(el)+S(vib)+S(rot)+S(trans))
     S(el)   - electronic entropy
     S(vib)  - vibrational entropy
     S(rot)  - rotational entropy
     S(trans)- translational entropy
The entropies will be listed as multiplied by the temperature to get
units of energy

Electronic entropy                ...      0.00065446 Eh      0.41 kcal/mol
Vibrational entropy               ...      0.00004547 Eh      0.03 kcal/mol
Rotational entropy                ...      0.00562936 Eh      3.53 kcal/mol
Translational entropy             ...      0.01618771 Eh     10.16 kcal/mol
-----------------------------------------------------------------------
Final entropy term                ...      0.02251699 Eh     14.13 kcal/mol

In case the symmetry of your molecule has not been determined correctly
or in case you have a reason to use a different symmetry number we print
out the resulting rotational entropy values for sn=1,12 :
 --------------------------------------------------------
|  sn= 1 | S(rot)=       0.00666665 Eh      4.18 kcal/mol|
|  sn= 2 | S(rot)=       0.00601220 Eh      3.77 kcal/mol|
|  sn= 3 | S(rot)=       0.00562936 Eh      3.53 kcal/mol|
|  sn= 4 | S(rot)=       0.00535774 Eh      3.36 kcal/mol|
|  sn= 5 | S(rot)=       0.00514705 Eh      3.23 kcal/mol|
|  sn= 6 | S(rot)=       0.00497491 Eh      3.12 kcal/mol|
|  sn= 7 | S(rot)=       0.00482936 Eh      3.03 kcal/mol|
|  sn= 8 | S(rot)=       0.00470328 Eh      2.95 kcal/mol|
|  sn= 9 | S(rot)=       0.00459208 Eh      2.88 kcal/mol|
|  sn=10 | S(rot)=       0.00449260 Eh      2.82 kcal/mol|
|  sn=11 | S(rot)=       0.00440261 Eh      2.76 kcal/mol|
|  sn=12 | S(rot)=       0.00432045 Eh      2.71 kcal/mol|
 --------------------------------------------------------

-------------------
GIBBS FREE ENERGY
-------------------

The Gibbs free energy is G = H - T*S

Total enthalpy                    ...    -39.79627455 Eh
Total entropy correction          ...     -0.02251699 Eh    -14.13 kcal/mol
-----------------------------------------------------------------------
Final Gibbs free energy         ...    -39.81879154 Eh

For completeness - the Gibbs free energy minus the electronic energy
G-E(el)                           ...      0.01191818 Eh      7.48 kcal/mol

                             ****ORCA TERMINATED NORMALLY****
TOTAL RUN TIME: 0 days 0 hours 0 minutes 55 seconds 167 msec
