                         Program Version 5.0.4 -  RELEASE  -
|  1> ! UKS TightSCF wB97x-D3 def2-TZVPD xyzfile opt freq
|  2>
|  3> # CH3 radical 109.0 degrees fixed
|  4>
|  5> %maxcore 1000
|  6> %pal
|  7> nprocs 18
|  8> end
|  9>
| 10> %geom Constraints
| 11>         { A * 0 * C }
| 12>     end
| 13> end
| 14> * xyz 0 2
| 15> C 0.00 0.00 0.00
| 16> H 1.0152643975 0.0000000000 -0.3682909218
| 17> H -0.5076321988 0.8792447598 -0.3682909218
| 18> H -0.5076321988 -0.8792447598 -0.3682909218
| 19> **                         ****END OF INPUT****
 Total Charge           Charge          ....    0
 Multiplicity           Mult            ....    2
 Number of Electrons    NEL             ....    9
Dispersion correction           -0.000011321
FINAL SINGLE POINT ENERGY       -39.827433941958
Dispersion correction            ... done
Dispersion correction           -0.000012135
FINAL SINGLE POINT ENERGY       -39.827614835868
Dispersion correction            ... done
                    ***********************HURRAY********************

CARTESIAN COORDINATES (ANGSTROEM)
---------------------------------
  C      0.000007   -0.000000    0.002477
  H      1.024361   -0.000000   -0.369115
  H     -0.512184    0.887137   -0.369118
  H     -0.512184   -0.887137   -0.369118

 Multiplicity           Mult            ....    2
 Number of Electrons    NEL             ....    9
 Basis Dimension        Dim             ....   64

ORBITAL ENERGIES
----------------
                 SPIN UP ORBITALS
  NO   OCC          E(Eh)            E(eV)
   0   1.0000     -10.293836      -280.1095
   1   1.0000      -0.808291       -21.9947
   2   1.0000      -0.505732       -13.7617
   3   1.0000      -0.505705       -13.7609
   4   1.0000      -0.360539        -9.8108
   5   0.0000       0.075740         2.0610
   6   0.0000       0.160978         4.3804
   7   0.0000       0.160986         4.3807
   8   0.0000       0.195120         5.3095
   9   0.0000       0.196185         5.3385

                 SPIN DOWN ORBITALS
  NO   OCC          E(Eh)            E(eV)
   0   1.0000     -10.282915      -279.8123
   1   1.0000      -0.768531       -20.9128
   2   1.0000      -0.491526       -13.3751
   3   1.0000      -0.491462       -13.3734
   4   0.0000      -0.013501        -0.3674
   5   0.0000       0.084881         2.3097
   6   0.0000       0.165800         4.5116
   7   0.0000       0.165808         4.5119
   8   0.0000       0.199751         5.4355

MULLIKEN ATOMIC CHARGES AND SPIN POPULATIONS
--------------------------------------------
   0 C :   -0.696570    0.886510
   1 H :    0.231930    0.037787
   2 H :    0.232321    0.037851
   3 H :    0.232318    0.037851
Sum of atomic charges         :    0.0000000

LOEWDIN ATOMIC CHARGES AND SPIN POPULATIONS
-------------------------------------------
   0 C :    0.050810    0.836483
   1 H :   -0.016967    0.054517
   2 H :   -0.016922    0.054500
   3 H :   -0.016922    0.054500

  Mayer bond orders larger than 0.100000
B(  0-C ,  1-H ) :   0.9904 B(  0-C ,  2-H ) :   0.9898 B(  0-C ,  3-H ) :   0.9899

Dispersion correction           -0.000012160
FINAL SINGLE POINT ENERGY       -39.827614995500

DIPOLE MOMENT
-------------
                                X             Y             Z
Electronic contribution:      0.00015      -0.00000       0.58378
Nuclear contribution   :     -0.00002       0.00000      -0.83551
                        -----------------------------------------
Total Dipole Moment    :      0.00013      -0.00000      -0.25173
                        -----------------------------------------
Magnitude (a.u.)       :      0.25173
Magnitude (Debye)      :      0.63985

Dispersion correction in the Hessian             ... done   (      0.1 sec)

VIBRATIONAL FREQUENCIES
-----------------------

Scaling factor for frequencies =  1.000000000  (already applied!)

   0:         0.00 cm**-1
   1:         0.00 cm**-1
   2:         0.00 cm**-1
   3:         0.00 cm**-1
   4:         0.00 cm**-1
   5:         0.00 cm**-1
   6:      1150.25 cm**-1
   7:      1416.41 cm**-1
   8:      1417.45 cm**-1
   9:      3077.27 cm**-1
  10:      3185.47 cm**-1
  11:      3185.57 cm**-1

IR SPECTRUM
-----------

 Mode   freq       eps      Int      T**2         TX        TY        TZ
       cm**-1   L/(mol*cm) km/mol    a.u.
----------------------------------------------------------------------------
  6:   1150.25   0.003733   18.87  0.001013  (-0.000054  0.000000  0.031825)
  7:   1416.41   0.000649    3.28  0.000143  ( 0.000000  0.011954 -0.000000)
  8:   1417.45   0.000638    3.22  0.000140  (-0.011840  0.000000 -0.000436)
  9:   3077.27   0.000016    0.08  0.000002  (-0.000044  0.000000 -0.001280)
 10:   3185.47   0.004322   21.84  0.000423  (-0.000012  0.020576 -0.000000)
 11:   3185.57   0.004242   21.44  0.000416  ( 0.020386  0.000012 -0.000027)

--------------------------
THERMOCHEMISTRY AT 298.15K
--------------------------

Temperature         ... 298.15 K
Pressure            ... 1.00 atm
Total Mass          ... 15.03 AMU

Throughout the following assumptions are being made:
  (1) The electronic state is orbitally nondegenerate
      but the spin degeneracy is treated
  (2) There are no thermally accessible electronically excited states
  (3) Hindered rotations indicated by low frequency modes are not
      treated as such but are treated as vibrations and this may
      cause some error
  (4) All equations used are the standard statistical mechanics
      equations for an ideal gas
  (5) All vibrations are strictly harmonic

freq.    1150.25  E(vib)   ...       0.01
freq.    1416.41  E(vib)   ...       0.00
freq.    1417.45  E(vib)   ...       0.00
freq.    3077.27  E(vib)   ...       0.00
freq.    3185.47  E(vib)   ...       0.00
freq.    3185.57  E(vib)   ...       0.00

------------
INNER ENERGY
------------

The inner energy is: U= E(el) + E(ZPE) + E(vib) + E(rot) + E(trans)
    E(el)   - is the total energy from the electronic structure calculation
              = E(kin-el) + E(nuc-el) + E(el-el) + E(nuc-nuc)
    E(ZPE)  - the the zero temperature vibrational energy from the frequency calculation
    E(vib)  - the the finite temperature correction to E(ZPE) due to population
              of excited vibrational states
    E(rot)  - is the rotational thermal energy
    E(trans)- is the translational thermal energy

Summary of contributions to the inner energy U:
Electronic energy                ...    -39.82761500 Eh
Zero point energy                ...      0.03060132 Eh      19.20 kcal/mol
Thermal vibrational correction   ...      0.00003432 Eh       0.02 kcal/mol
Thermal rotational correction    ...      0.00141627 Eh       0.89 kcal/mol
Thermal translational correction ...      0.00141627 Eh       0.89 kcal/mol
-----------------------------------------------------------------------
Total thermal energy                    -39.79414681 Eh

Summary of corrections to the electronic energy:
(perhaps to be used in another calculation)
Total thermal correction                  0.00286686 Eh       1.80 kcal/mol
Non-thermal (ZPE) correction              0.03060132 Eh      19.20 kcal/mol
-----------------------------------------------------------------------
Total correction                          0.03346818 Eh      21.00 kcal/mol

--------
ENTHALPY
--------

The enthalpy is H = U + kB*T
                kB is Boltzmann's constant
Total free energy                 ...    -39.79414681 Eh
Thermal Enthalpy correction       ...      0.00094421 Eh       0.59 kcal/mol
-----------------------------------------------------------------------
Total Enthalpy                    ...    -39.79320260 Eh

Note: Rotational entropy computed according to Herzberg
Infrared and Raman Spectra, Chapter V,1, Van Nostrand Reinhold, 1945
Point Group:  C3v, Symmetry Number:   3
Rotational constants in cm-1:     8.779348     8.779134     5.312524

Vibrational entropy computed according to the QRRHO of S. Grimme
Chem.Eur.J. 2012 18 9955

-------
ENTROPY
-------

The entropy contributions are T*S = T*(S(el)+S(vib)+S(rot)+S(trans))
     S(el)   - electronic entropy
     S(vib)  - vibrational entropy
     S(rot)  - rotational entropy
     S(trans)- translational entropy
The entropies will be listed as multiplied by the temperature to get
units of energy

Electronic entropy                ...      0.00065446 Eh      0.41 kcal/mol
Vibrational entropy               ...      0.00004004 Eh      0.03 kcal/mol
Rotational entropy                ...      0.00563397 Eh      3.54 kcal/mol
Translational entropy             ...      0.01618771 Eh     10.16 kcal/mol
-----------------------------------------------------------------------
Final entropy term                ...      0.02251617 Eh     14.13 kcal/mol

In case the symmetry of your molecule has not been determined correctly
or in case you have a reason to use a different symmetry number we print
out the resulting rotational entropy values for sn=1,12 :
 --------------------------------------------------------
|  sn= 1 | S(rot)=       0.00667126 Eh      4.19 kcal/mol|
|  sn= 2 | S(rot)=       0.00601680 Eh      3.78 kcal/mol|
|  sn= 3 | S(rot)=       0.00563397 Eh      3.54 kcal/mol|
|  sn= 4 | S(rot)=       0.00536235 Eh      3.36 kcal/mol|
|  sn= 5 | S(rot)=       0.00515166 Eh      3.23 kcal/mol|
|  sn= 6 | S(rot)=       0.00497951 Eh      3.12 kcal/mol|
|  sn= 7 | S(rot)=       0.00483397 Eh      3.03 kcal/mol|
|  sn= 8 | S(rot)=       0.00470789 Eh      2.95 kcal/mol|
|  sn= 9 | S(rot)=       0.00459668 Eh      2.88 kcal/mol|
|  sn=10 | S(rot)=       0.00449720 Eh      2.82 kcal/mol|
|  sn=11 | S(rot)=       0.00440721 Eh      2.77 kcal/mol|
|  sn=12 | S(rot)=       0.00432506 Eh      2.71 kcal/mol|
 --------------------------------------------------------

-------------------
GIBBS FREE ENERGY
-------------------

The Gibbs free energy is G = H - T*S

Total enthalpy                    ...    -39.79320260 Eh
Total entropy correction          ...     -0.02251617 Eh    -14.13 kcal/mol
-----------------------------------------------------------------------
Final Gibbs free energy         ...    -39.81571877 Eh

For completeness - the Gibbs free energy minus the electronic energy
G-E(el)                           ...      0.01189623 Eh      7.46 kcal/mol

                             ****ORCA TERMINATED NORMALLY****
TOTAL RUN TIME: 0 days 0 hours 0 minutes 54 seconds 441 msec
