                         Program Version 5.0.4 -  RELEASE  -
|  1> ! UKS TightSCF wB97x-D3 def2-TZVPD xyzfile opt freq
|  2>
|  3> # CH3 radical 111.5 degrees fixed
|  4>
|  5> %maxcore 1000
|  6> %pal
|  7> nprocs 18
|  8> end
|  9>
| 10> %geom Constraints
| 11>         { A * 0 * C }
| 12>     end
| 13> end
| 14> * xyz 0 2
| 15> C 0.00 0.00 0.00
| 16> H 1.0308207186 0.0000000000 -0.3221934917
| 17> H -0.5154103593 0.8927169291 -0.3221934917
| 18> H -0.5154103593 -0.8927169291 -0.3221934917
| 19> **                         ****END OF INPUT****
 Total Charge           Charge          ....    0
 Multiplicity           Mult            ....    2
 Number of Electrons    NEL             ....    9
Dispersion correction           -0.000012762
FINAL SINGLE POINT ENERGY       -39.831310328050
Dispersion correction            ... done
Dispersion correction           -0.000013472
FINAL SINGLE POINT ENERGY       -39.831419685462
Dispersion correction            ... done
                    ***********************HURRAY********************

CARTESIAN COORDINATES (ANGSTROEM)
---------------------------------
  C     -0.000001    0.000000    0.001679
  H      1.037984    0.000000   -0.322753
  H     -0.518991    0.898918   -0.322753
  H     -0.518991   -0.898918   -0.322753

 Multiplicity           Mult            ....    2
 Number of Electrons    NEL             ....    9
 Basis Dimension        Dim             ....   64

ORBITAL ENERGIES
----------------
                 SPIN UP ORBITALS
  NO   OCC          E(Eh)            E(eV)
   0   1.0000     -10.291945      -280.0581
   1   1.0000      -0.806742       -21.9526
   2   1.0000      -0.509474       -13.8635
   3   1.0000      -0.509448       -13.8628
   4   1.0000      -0.352980        -9.6051
   5   0.0000       0.075941         2.0665
   6   0.0000       0.161078         4.3832
   7   0.0000       0.161090         4.3835
   8   0.0000       0.197469         5.3734
   9   0.0000       0.197477         5.3736

                 SPIN DOWN ORBITALS
  NO   OCC          E(Eh)            E(eV)
   0   1.0000     -10.281224      -279.7663
   1   1.0000      -0.765803       -20.8385
   2   1.0000      -0.495643       -13.4871
   3   1.0000      -0.495568       -13.4851
   4   0.0000      -0.007821        -0.2128
   5   0.0000       0.085361         2.3228
   6   0.0000       0.165706         4.5091
   7   0.0000       0.165721         4.5095
   8   0.0000       0.200159         5.4466

MULLIKEN ATOMIC CHARGES AND SPIN POPULATIONS
--------------------------------------------
   0 C :   -0.706373    0.889777
   1 H :    0.235243    0.036705
   2 H :    0.235565    0.036759
   3 H :    0.235565    0.036758
Sum of atomic charges         :    0.0000000

LOEWDIN ATOMIC CHARGES AND SPIN POPULATIONS
-------------------------------------------
   0 C :    0.053149    0.835896
   1 H :   -0.017726    0.054717
   2 H :   -0.017711    0.054694
   3 H :   -0.017711    0.054694

  Mayer bond orders larger than 0.100000
B(  0-C ,  1-H ) :   0.9819 B(  0-C ,  2-H ) :   0.9814 B(  0-C ,  3-H ) :   0.9814

Dispersion correction           -0.000013489
FINAL SINGLE POINT ENERGY       -39.831419747206

DIPOLE MOMENT
-------------
                                X             Y             Z
Electronic contribution:      0.00019      -0.00000       0.49946
Nuclear contribution   :      0.00000      -0.00000      -0.72947
                        -----------------------------------------
Total Dipole Moment    :      0.00020      -0.00000      -0.23001
                        -----------------------------------------
Magnitude (a.u.)       :      0.23001
Magnitude (Debye)      :      0.58463

Dispersion correction in the Hessian             ... done   (      0.1 sec)

VIBRATIONAL FREQUENCIES
-----------------------

Scaling factor for frequencies =  1.000000000  (already applied!)

   0:         0.00 cm**-1
   1:         0.00 cm**-1
   2:         0.00 cm**-1
   3:         0.00 cm**-1
   4:         0.00 cm**-1
   5:         0.00 cm**-1
   6:      1083.69 cm**-1
   7:      1420.24 cm**-1
   8:      1422.77 cm**-1
   9:      3087.19 cm**-1
  10:      3213.15 cm**-1
  11:      3213.26 cm**-1

IR SPECTRUM
-----------

 Mode   freq       eps      Int      T**2         TX        TY        TZ
       cm**-1   L/(mol*cm) km/mol    a.u.
----------------------------------------------------------------------------
  6:   1083.69   0.005044   25.49  0.001452  (-0.000091 -0.000000  0.038110)
  7:   1420.24   0.000604    3.05  0.000133  ( 0.011521 -0.000000  0.000269)
  8:   1422.77   0.000606    3.06  0.000133  ( 0.000000  0.011526  0.000000)
  9:   3087.19   0.000014    0.07  0.000001  ( 0.000002 -0.000000 -0.001191)
 10:   3213.15   0.003424   17.30  0.000333  (-0.018235 -0.000019  0.000021)
 11:   3213.26   0.003464   17.50  0.000336  (-0.000019  0.018341  0.000000)

--------------------------
THERMOCHEMISTRY AT 298.15K
--------------------------

Temperature         ... 298.15 K
Pressure            ... 1.00 atm
Total Mass          ... 15.03 AMU

Throughout the following assumptions are being made:
  (1) The electronic state is orbitally nondegenerate
      but the spin degeneracy is treated
  (2) There are no thermally accessible electronically excited states
  (3) Hindered rotations indicated by low frequency modes are not
      treated as such but are treated as vibrations and this may
      cause some error
  (4) All equations used are the standard statistical mechanics
      equations for an ideal gas
  (5) All vibrations are strictly harmonic

freq.    1083.69  E(vib)   ...       0.02
freq.    1420.24  E(vib)   ...       0.00
freq.    1422.77  E(vib)   ...       0.00
freq.    3087.19  E(vib)   ...       0.00
freq.    3213.15  E(vib)   ...       0.00
freq.    3213.26  E(vib)   ...       0.00

------------
INNER ENERGY
------------

The inner energy is: U= E(el) + E(ZPE) + E(vib) + E(rot) + E(trans)
    E(el)   - is the total energy from the electronic structure calculation
              = E(kin-el) + E(nuc-el) + E(el-el) + E(nuc-nuc)
    E(ZPE)  - the the zero temperature vibrational energy from the frequency calculation
    E(vib)  - the the finite temperature correction to E(ZPE) due to population
              of excited vibrational states
    E(rot)  - is the rotational thermal energy
    E(trans)- is the translational thermal energy

Summary of contributions to the inner energy U:
Electronic energy                ...    -39.83141975 Eh
Zero point energy                ...      0.03061928 Eh      19.21 kcal/mol
Thermal vibrational correction   ...      0.00004021 Eh       0.03 kcal/mol
Thermal rotational correction    ...      0.00141627 Eh       0.89 kcal/mol
Thermal translational correction ...      0.00141627 Eh       0.89 kcal/mol
-----------------------------------------------------------------------
Total thermal energy                    -39.79792772 Eh

Summary of corrections to the electronic energy:
(perhaps to be used in another calculation)
Total thermal correction                  0.00287275 Eh       1.80 kcal/mol
Non-thermal (ZPE) correction              0.03061928 Eh      19.21 kcal/mol
-----------------------------------------------------------------------
Total correction                          0.03349203 Eh      21.02 kcal/mol

--------
ENTHALPY
--------

The enthalpy is H = U + kB*T
                kB is Boltzmann's constant
Total free energy                 ...    -39.79792772 Eh
Thermal Enthalpy correction       ...      0.00094421 Eh       0.59 kcal/mol
-----------------------------------------------------------------------
Total Enthalpy                    ...    -39.79698351 Eh

Note: Rotational entropy computed according to Herzberg
Infrared and Raman Spectra, Chapter V,1, Van Nostrand Reinhold, 1945
Point Group:  C3v, Symmetry Number:   3
Rotational constants in cm-1:     8.951071     8.951026     5.174106

Vibrational entropy computed according to the QRRHO of S. Grimme
Chem.Eur.J. 2012 18 9955

-------
ENTROPY
-------

The entropy contributions are T*S = T*(S(el)+S(vib)+S(rot)+S(trans))
     S(el)   - electronic entropy
     S(vib)  - vibrational entropy
     S(rot)  - rotational entropy
     S(trans)- translational entropy
The entropies will be listed as multiplied by the temperature to get
units of energy

Electronic entropy                ...      0.00065446 Eh      0.41 kcal/mol
Vibrational entropy               ...      0.00004728 Eh      0.03 kcal/mol
Rotational entropy                ...      0.00562813 Eh      3.53 kcal/mol
Translational entropy             ...      0.01618771 Eh     10.16 kcal/mol
-----------------------------------------------------------------------
Final entropy term                ...      0.02251758 Eh     14.13 kcal/mol

In case the symmetry of your molecule has not been determined correctly
or in case you have a reason to use a different symmetry number we print
out the resulting rotational entropy values for sn=1,12 :
 --------------------------------------------------------
|  sn= 1 | S(rot)=       0.00666542 Eh      4.18 kcal/mol|
|  sn= 2 | S(rot)=       0.00601097 Eh      3.77 kcal/mol|
|  sn= 3 | S(rot)=       0.00562813 Eh      3.53 kcal/mol|
|  sn= 4 | S(rot)=       0.00535651 Eh      3.36 kcal/mol|
|  sn= 5 | S(rot)=       0.00514582 Eh      3.23 kcal/mol|
|  sn= 6 | S(rot)=       0.00497368 Eh      3.12 kcal/mol|
|  sn= 7 | S(rot)=       0.00482813 Eh      3.03 kcal/mol|
|  sn= 8 | S(rot)=       0.00470205 Eh      2.95 kcal/mol|
|  sn= 9 | S(rot)=       0.00459085 Eh      2.88 kcal/mol|
|  sn=10 | S(rot)=       0.00449137 Eh      2.82 kcal/mol|
|  sn=11 | S(rot)=       0.00440138 Eh      2.76 kcal/mol|
|  sn=12 | S(rot)=       0.00431922 Eh      2.71 kcal/mol|
 --------------------------------------------------------

-------------------
GIBBS FREE ENERGY
-------------------

The Gibbs free energy is G = H - T*S

Total enthalpy                    ...    -39.79698351 Eh
Total entropy correction          ...     -0.02251758 Eh    -14.13 kcal/mol
-----------------------------------------------------------------------
Final Gibbs free energy         ...    -39.81950108 Eh

For completeness - the Gibbs free energy minus the electronic energy
G-E(el)                           ...      0.01191866 Eh      7.48 kcal/mol

                             ****ORCA TERMINATED NORMALLY****
TOTAL RUN TIME: 0 days 0 hours 1 minutes 24 seconds 371 msec
