                         Program Version 5.0.4 -  RELEASE  -
|  1> ! UKS TightSCF wB97x-D3 def2-TZVPD xyzfile opt freq
|  2>
|  3> # CH3 radical 103.5 degrees fixed
|  4>
|  5> %maxcore 1000
|  6> %pal
|  7> nprocs 18
|  8> end
|  9>
| 10> %geom Constraints
| 11>         { A * 0 * C }
| 12>     end
| 13> end
| 14> * xyz 0 2
| 15> C 0.00 0.00 0.00
| 16> H 0.9793503535 0.0000000000 -0.4552723197
| 17> H -0.4896751768 0.8481422854 -0.4552723197
| 18> H -0.4896751768 -0.8481422854 -0.4552723197
| 19> **                         ****END OF INPUT****
 Total Charge           Charge          ....    0
 Multiplicity           Mult            ....    2
 Number of Electrons    NEL             ....    9
Dispersion correction           -0.000008530
FINAL SINGLE POINT ENERGY       -39.816621494467
Dispersion correction            ... done
Dispersion correction           -0.000009446
FINAL SINGLE POINT ENERGY       -39.817016677839
Dispersion correction            ... done
Dispersion correction           -0.000009487
FINAL SINGLE POINT ENERGY       -39.817017377508
Dispersion correction            ... done
                    ***********************HURRAY********************

CARTESIAN COORDINATES (ANGSTROEM)
---------------------------------
  C      0.000019    0.000000    0.004569
  H      0.992430    0.000000   -0.456790
  H     -0.496224    0.859508   -0.456798
  H     -0.496224   -0.859508   -0.456798

 Multiplicity           Mult            ....    2
 Number of Electrons    NEL             ....    9
 Basis Dimension        Dim             ....   64

ORBITAL ENERGIES
----------------
                 SPIN UP ORBITALS
  NO   OCC          E(Eh)            E(eV)
   0   1.0000     -10.298017      -280.2233
   1   1.0000      -0.812184       -22.1007
   2   1.0000      -0.497124       -13.5274
   3   1.0000      -0.497079       -13.5262
   4   1.0000      -0.376843       -10.2544
   5   0.0000       0.075110         2.0438
   6   0.0000       0.160653         4.3716
   7   0.0000       0.160658         4.3717
   8   0.0000       0.183359         4.9894
   9   0.0000       0.194318         5.2877

                 SPIN DOWN ORBITALS
  NO   OCC          E(Eh)            E(eV)
   0   1.0000     -10.286657      -279.9142
   1   1.0000      -0.774806       -21.0835
   2   1.0000      -0.482118       -13.1191
   3   1.0000      -0.482108       -13.1188
   4   0.0000      -0.026248        -0.7142
   5   0.0000       0.083650         2.2762
   6   0.0000       0.165839         4.5127
   7   0.0000       0.165846         4.5129
   8   0.0000       0.199612         5.4317

MULLIKEN ATOMIC CHARGES AND SPIN POPULATIONS
--------------------------------------------
   0 C :   -0.677233    0.888175
   1 H :    0.225416    0.037214
   2 H :    0.225909    0.037305
   3 H :    0.225908    0.037305
Sum of atomic charges         :   -0.0000000

LOEWDIN ATOMIC CHARGES AND SPIN POPULATIONS
-------------------------------------------
   0 C :    0.045679    0.838436
   1 H :   -0.015284    0.053859
   2 H :   -0.015198    0.053853
   3 H :   -0.015198    0.053853

  Mayer bond orders larger than 0.100000
B(  0-C ,  1-H ) :   1.0064 B(  0-C ,  2-H ) :   1.0059 B(  0-C ,  3-H ) :   1.0059

Dispersion correction           -0.000009488
FINAL SINGLE POINT ENERGY       -39.817017378950

DIPOLE MOMENT
-------------
                                X             Y             Z
Electronic contribution:      0.00002      -0.00000       0.75161
Nuclear contribution   :     -0.00006      -0.00000      -1.03735
                        -----------------------------------------
Total Dipole Moment    :     -0.00004      -0.00000      -0.28574
                        -----------------------------------------
Magnitude (a.u.)       :      0.28574
Magnitude (Debye)      :      0.72629

Dispersion correction in the Hessian             ... done   (      0.1 sec)

VIBRATIONAL FREQUENCIES
-----------------------

Scaling factor for frequencies =  1.000000000  (already applied!)

   0:         0.00 cm**-1
   1:         0.00 cm**-1
   2:         0.00 cm**-1
   3:         0.00 cm**-1
   4:         0.00 cm**-1
   5:         0.00 cm**-1
   6:      1262.75 cm**-1
   7:      1403.18 cm**-1
   8:      1405.99 cm**-1
   9:      3058.37 cm**-1
  10:      3125.64 cm**-1
  11:      3125.67 cm**-1

IR SPECTRUM
-----------

 Mode   freq       eps      Int      T**2         TX        TY        TZ
       cm**-1   L/(mol*cm) km/mol    a.u.
----------------------------------------------------------------------------
  6:   1262.75   0.002123   10.73  0.000525  ( 0.000143 -0.000000  0.022906)
  7:   1403.18   0.000797    4.03  0.000177  ( 0.000000 -0.013313 -0.000000)
  8:   1405.99   0.000791    4.00  0.000176  (-0.013254 -0.000000 -0.000039)
  9:   3058.37   0.000017    0.09  0.000002  ( 0.000005  0.000000  0.001314)
 10:   3125.64   0.006209   31.38  0.000620  ( 0.000065  0.024898  0.000000)
 11:   3125.67   0.006058   30.62  0.000605  ( 0.024594 -0.000065  0.000028)

--------------------------
THERMOCHEMISTRY AT 298.15K
--------------------------

Temperature         ... 298.15 K
Pressure            ... 1.00 atm
Total Mass          ... 15.03 AMU

Throughout the following assumptions are being made:
  (1) The electronic state is orbitally nondegenerate
      but the spin degeneracy is treated
  (2) There are no thermally accessible electronically excited states
  (3) Hindered rotations indicated by low frequency modes are not
      treated as such but are treated as vibrations and this may
      cause some error
  (4) All equations used are the standard statistical mechanics
      equations for an ideal gas
  (5) All vibrations are strictly harmonic

freq.    1262.75  E(vib)   ...       0.01
freq.    1403.18  E(vib)   ...       0.00
freq.    1405.99  E(vib)   ...       0.00
freq.    3058.37  E(vib)   ...       0.00
freq.    3125.64  E(vib)   ...       0.00
freq.    3125.67  E(vib)   ...       0.00

------------
INNER ENERGY
------------

The inner energy is: U= E(el) + E(ZPE) + E(vib) + E(rot) + E(trans)
    E(el)   - is the total energy from the electronic structure calculation
              = E(kin-el) + E(nuc-el) + E(el-el) + E(nuc-nuc)
    E(ZPE)  - the the zero temperature vibrational energy from the frequency calculation
    E(vib)  - the the finite temperature correction to E(ZPE) due to population
              of excited vibrational states
    E(rot)  - is the rotational thermal energy
    E(trans)- is the translational thermal energy

Summary of contributions to the inner energy U:
Electronic energy                ...    -39.81701738 Eh
Zero point energy                ...      0.03048552 Eh      19.13 kcal/mol
Thermal vibrational correction   ...      0.00002762 Eh       0.02 kcal/mol
Thermal rotational correction    ...      0.00141627 Eh       0.89 kcal/mol
Thermal translational correction ...      0.00141627 Eh       0.89 kcal/mol
-----------------------------------------------------------------------
Total thermal energy                    -39.78367169 Eh

Summary of corrections to the electronic energy:
(perhaps to be used in another calculation)
Total thermal correction                  0.00286017 Eh       1.79 kcal/mol
Non-thermal (ZPE) correction              0.03048552 Eh      19.13 kcal/mol
-----------------------------------------------------------------------
Total correction                          0.03334568 Eh      20.92 kcal/mol

--------
ENTHALPY
--------

The enthalpy is H = U + kB*T
                kB is Boltzmann's constant
Total free energy                 ...    -39.78367169 Eh
Thermal Enthalpy correction       ...      0.00094421 Eh       0.59 kcal/mol
-----------------------------------------------------------------------
Total Enthalpy                    ...    -39.78272749 Eh

Note: Rotational entropy computed according to Herzberg
Infrared and Raman Spectra, Chapter V,1, Van Nostrand Reinhold, 1945
Point Group:  C3v, Symmetry Number:   3
Rotational constants in cm-1:     8.414397     8.413908     5.659697

Vibrational entropy computed according to the QRRHO of S. Grimme
Chem.Eur.J. 2012 18 9955

-------
ENTROPY
-------

The entropy contributions are T*S = T*(S(el)+S(vib)+S(rot)+S(trans))
     S(el)   - electronic entropy
     S(vib)  - vibrational entropy
     S(rot)  - rotational entropy
     S(trans)- translational entropy
The entropies will be listed as multiplied by the temperature to get
units of energy

Electronic entropy                ...      0.00065446 Eh      0.41 kcal/mol
Vibrational entropy               ...      0.00003192 Eh      0.02 kcal/mol
Rotational entropy                ...      0.00564419 Eh      3.54 kcal/mol
Translational entropy             ...      0.01618771 Eh     10.16 kcal/mol
-----------------------------------------------------------------------
Final entropy term                ...      0.02251827 Eh     14.13 kcal/mol

In case the symmetry of your molecule has not been determined correctly
or in case you have a reason to use a different symmetry number we print
out the resulting rotational entropy values for sn=1,12 :
 --------------------------------------------------------
|  sn= 1 | S(rot)=       0.00668148 Eh      4.19 kcal/mol|
|  sn= 2 | S(rot)=       0.00602702 Eh      3.78 kcal/mol|
|  sn= 3 | S(rot)=       0.00564419 Eh      3.54 kcal/mol|
|  sn= 4 | S(rot)=       0.00537256 Eh      3.37 kcal/mol|
|  sn= 5 | S(rot)=       0.00516188 Eh      3.24 kcal/mol|
|  sn= 6 | S(rot)=       0.00498973 Eh      3.13 kcal/mol|
|  sn= 7 | S(rot)=       0.00484419 Eh      3.04 kcal/mol|
|  sn= 8 | S(rot)=       0.00471811 Eh      2.96 kcal/mol|
|  sn= 9 | S(rot)=       0.00460690 Eh      2.89 kcal/mol|
|  sn=10 | S(rot)=       0.00450742 Eh      2.83 kcal/mol|
|  sn=11 | S(rot)=       0.00441743 Eh      2.77 kcal/mol|
|  sn=12 | S(rot)=       0.00433528 Eh      2.72 kcal/mol|
 --------------------------------------------------------

-------------------
GIBBS FREE ENERGY
-------------------

The Gibbs free energy is G = H - T*S

Total enthalpy                    ...    -39.78272749 Eh
Total entropy correction          ...     -0.02251827 Eh    -14.13 kcal/mol
-----------------------------------------------------------------------
Final Gibbs free energy         ...    -39.80524575 Eh

For completeness - the Gibbs free energy minus the electronic energy
G-E(el)                           ...      0.01177162 Eh      7.39 kcal/mol

                             ****ORCA TERMINATED NORMALLY****
TOTAL RUN TIME: 0 days 0 hours 1 minutes 10 seconds 679 msec
