                         Program Version 5.0.4 -  RELEASE  -
|  1> ! UKS TightSCF wB97x-D3 def2-TZVPD xyzfile opt freq
|  2>
|  3> # CH3 radical 119.5 degrees fixed
|  4>
|  5> %maxcore 1000
|  6> %pal
|  7> nprocs 18
|  8> end
|  9>
| 10> %geom Constraints
| 11>         { A * 0 * C }
| 12>     end
| 13> end
| 14> * xyz 0 2
| 15> C 0.00 0.00 0.00
| 16> H 1.0772690288 0.0000000000 -0.0767557142
| 17> H -0.5386345144 0.9329423456 -0.0767557142
| 18> H -0.5386345144 -0.9329423456 -0.0767557142
| 19> **                         ****END OF INPUT****
 Total Charge           Charge          ....    0
 Multiplicity           Mult            ....    2
 Number of Electrons    NEL             ....    9
Dispersion correction           -0.000018067
FINAL SINGLE POINT ENERGY       -39.839332103977
Dispersion correction            ... done
                    ***********************HURRAY********************

CARTESIAN COORDINATES (ANGSTROEM)
---------------------------------
  C      0.000003    0.000000    0.000001
  H      1.077281    0.000000   -0.076756
  H     -0.538642    0.932961   -0.076756
  H     -0.538642   -0.932961   -0.076756

 Multiplicity           Mult            ....    2
 Number of Electrons    NEL             ....    9
 Basis Dimension        Dim             ....   64

ORBITAL ENERGIES
----------------
                 SPIN UP ORBITALS
  NO   OCC          E(Eh)            E(eV)
   0   1.0000     -10.285712      -279.8884
   1   1.0000      -0.802553       -21.8386
   2   1.0000      -0.520665       -14.1680
   3   1.0000      -0.520664       -14.1680
   4   1.0000      -0.328167        -8.9299
   5   0.0000       0.076376         2.0783
   6   0.0000       0.161184         4.3860
   7   0.0000       0.161186         4.3861
   8   0.0000       0.196763         5.3542
   9   0.0000       0.205094         5.5809

                 SPIN DOWN ORBITALS
  NO   OCC          E(Eh)            E(eV)
   0   1.0000     -10.275638      -279.6143
   1   1.0000      -0.757192       -20.6042
   2   1.0000      -0.508133       -13.8270
   3   1.0000      -0.508127       -13.8269
   4   0.0000       0.009458         0.2574
   5   0.0000       0.086584         2.3561
   6   0.0000       0.164744         4.4829
   7   0.0000       0.164750         4.4831
   8   0.0000       0.205185         5.5834

MULLIKEN ATOMIC CHARGES AND SPIN POPULATIONS
--------------------------------------------
   0 C :   -0.758039    0.922774
   1 H :    0.252855    0.025720
   2 H :    0.252593    0.025752
   3 H :    0.252592    0.025753
Sum of atomic charges         :   -0.0000000

LOEWDIN ATOMIC CHARGES AND SPIN POPULATIONS
-------------------------------------------
   0 C :    0.060234    0.835499
   1 H :   -0.020095    0.054827
   2 H :   -0.020070    0.054837
   3 H :   -0.020069    0.054837

  Mayer bond orders larger than 0.100000
B(  0-C ,  1-H ) :   0.9440 B(  0-C ,  2-H ) :   0.9442 B(  0-C ,  3-H ) :   0.9442

Dispersion correction           -0.000018070
FINAL SINGLE POINT ENERGY       -39.839332102966

DIPOLE MOMENT
-------------
                                X             Y             Z
Electronic contribution:     -0.00003       0.00000       0.10839
Nuclear contribution   :     -0.00001      -0.00000      -0.17258
                        -----------------------------------------
Total Dipole Moment    :     -0.00004      -0.00000      -0.06419
                        -----------------------------------------
Magnitude (a.u.)       :      0.06419
Magnitude (Debye)      :      0.16316

Dispersion correction in the Hessian             ... done   (      0.1 sec)

VIBRATIONAL FREQUENCIES
-----------------------

Scaling factor for frequencies =  1.000000000  (already applied!)

   0:         0.00 cm**-1
   1:         0.00 cm**-1
   2:         0.00 cm**-1
   3:         0.00 cm**-1
   4:         0.00 cm**-1
   5:         0.00 cm**-1
   6:       584.55 cm**-1
   7:      1404.86 cm**-1
   8:      1406.85 cm**-1
   9:      3130.04 cm**-1
  10:      3307.30 cm**-1
  11:      3307.92 cm**-1

IR SPECTRUM
-----------

 Mode   freq       eps      Int      T**2         TX        TY        TZ
       cm**-1   L/(mol*cm) km/mol    a.u.
----------------------------------------------------------------------------
  6:    584.55   0.014760   74.59  0.007880  (-0.000048  0.000000  0.088767)
  7:   1404.86   0.000549    2.77  0.000122  ( 0.011027  0.000000  0.000608)
  8:   1406.85   0.000556    2.81  0.000123  ( 0.000000 -0.011103  0.000000)
  9:   3130.04   0.000001    0.00  0.000000  ( 0.000085 -0.000000 -0.000238)
 10:   3307.30   0.000995    5.03  0.000094  ( 0.009688  0.000005 -0.000015)
 11:   3307.92   0.000960    4.85  0.000091  ( 0.000005 -0.009517 -0.000000)

--------------------------
THERMOCHEMISTRY AT 298.15K
--------------------------

Temperature         ... 298.15 K
Pressure            ... 1.00 atm
Total Mass          ... 15.03 AMU

Throughout the following assumptions are being made:
  (1) The electronic state is orbitally nondegenerate
      but the spin degeneracy is treated
  (2) There are no thermally accessible electronically excited states
  (3) Hindered rotations indicated by low frequency modes are not
      treated as such but are treated as vibrations and this may
      cause some error
  (4) All equations used are the standard statistical mechanics
      equations for an ideal gas
  (5) All vibrations are strictly harmonic

freq.     584.55  E(vib)   ...       0.11
freq.    1404.86  E(vib)   ...       0.00
freq.    1406.85  E(vib)   ...       0.00
freq.    3130.04  E(vib)   ...       0.00
freq.    3307.30  E(vib)   ...       0.00
freq.    3307.92  E(vib)   ...       0.00

------------
INNER ENERGY
------------

The inner energy is: U= E(el) + E(ZPE) + E(vib) + E(rot) + E(trans)
    E(el)   - is the total energy from the electronic structure calculation
              = E(kin-el) + E(nuc-el) + E(el-el) + E(nuc-nuc)
    E(ZPE)  - the the zero temperature vibrational energy from the frequency calculation
    E(vib)  - the the finite temperature correction to E(ZPE) due to population
              of excited vibrational states
    E(rot)  - is the rotational thermal energy
    E(trans)- is the translational thermal energy

Summary of contributions to the inner energy U:
Electronic energy                ...    -39.83933210 Eh
Zero point energy                ...      0.02993857 Eh      18.79 kcal/mol
Thermal vibrational correction   ...      0.00018320 Eh       0.11 kcal/mol
Thermal rotational correction    ...      0.00141627 Eh       0.89 kcal/mol
Thermal translational correction ...      0.00141627 Eh       0.89 kcal/mol
-----------------------------------------------------------------------
Total thermal energy                    -39.80637779 Eh

Summary of corrections to the electronic energy:
(perhaps to be used in another calculation)
Total thermal correction                  0.00301574 Eh       1.89 kcal/mol
Non-thermal (ZPE) correction              0.02993857 Eh      18.79 kcal/mol
-----------------------------------------------------------------------
Total correction                          0.03295431 Eh      20.68 kcal/mol

--------
ENTHALPY
--------

The enthalpy is H = U + kB*T
                kB is Boltzmann's constant
Total free energy                 ...    -39.80637779 Eh
Thermal Enthalpy correction       ...      0.00094421 Eh       0.59 kcal/mol
-----------------------------------------------------------------------
Total Enthalpy                    ...    -39.80543358 Eh

Note: Rotational entropy computed according to Herzberg
Infrared and Raman Spectra, Chapter V,1, Van Nostrand Reinhold, 1945
Point Group:  C3v, Symmetry Number:   3
Rotational constants in cm-1:     9.529675     9.529518     4.803446

Vibrational entropy computed according to the QRRHO of S. Grimme
Chem.Eur.J. 2012 18 9955

-------
ENTROPY
-------

The entropy contributions are T*S = T*(S(el)+S(vib)+S(rot)+S(trans))
     S(el)   - electronic entropy
     S(vib)  - vibrational entropy
     S(rot)  - rotational entropy
     S(trans)- translational entropy
The entropies will be listed as multiplied by the temperature to get
units of energy

Electronic entropy                ...      0.00065446 Eh      0.41 kcal/mol
Vibrational entropy               ...      0.00024357 Eh      0.15 kcal/mol
Rotational entropy                ...      0.00560409 Eh      3.52 kcal/mol
Translational entropy             ...      0.01618771 Eh     10.16 kcal/mol
-----------------------------------------------------------------------
Final entropy term                ...      0.02268982 Eh     14.24 kcal/mol

In case the symmetry of your molecule has not been determined correctly
or in case you have a reason to use a different symmetry number we print
out the resulting rotational entropy values for sn=1,12 :
 --------------------------------------------------------
|  sn= 1 | S(rot)=       0.00664138 Eh      4.17 kcal/mol|
|  sn= 2 | S(rot)=       0.00598692 Eh      3.76 kcal/mol|
|  sn= 3 | S(rot)=       0.00560409 Eh      3.52 kcal/mol|
|  sn= 4 | S(rot)=       0.00533247 Eh      3.35 kcal/mol|
|  sn= 5 | S(rot)=       0.00512178 Eh      3.21 kcal/mol|
|  sn= 6 | S(rot)=       0.00494963 Eh      3.11 kcal/mol|
|  sn= 7 | S(rot)=       0.00480409 Eh      3.01 kcal/mol|
|  sn= 8 | S(rot)=       0.00467801 Eh      2.94 kcal/mol|
|  sn= 9 | S(rot)=       0.00456680 Eh      2.87 kcal/mol|
|  sn=10 | S(rot)=       0.00446732 Eh      2.80 kcal/mol|
|  sn=11 | S(rot)=       0.00437733 Eh      2.75 kcal/mol|
|  sn=12 | S(rot)=       0.00429518 Eh      2.70 kcal/mol|
 --------------------------------------------------------

-------------------
GIBBS FREE ENERGY
-------------------

The Gibbs free energy is G = H - T*S

Total enthalpy                    ...    -39.80543358 Eh
Total entropy correction          ...     -0.02268982 Eh    -14.24 kcal/mol
-----------------------------------------------------------------------
Final Gibbs free energy         ...    -39.82812340 Eh

For completeness - the Gibbs free energy minus the electronic energy
G-E(el)                           ...      0.01120870 Eh      7.03 kcal/mol

                             ****ORCA TERMINATED NORMALLY****
TOTAL RUN TIME: 0 days 0 hours 0 minutes 36 seconds 297 msec
