                         Program Version 5.0.4 -  RELEASE  -
|  1> ! UKS TightSCF wB97x-D3 def2-TZVPD xyzfile opt freq
|  2>
|  3> # CH3 radical 95.0 degrees fixed
|  4>
|  5> %maxcore 1000
|  6> %pal
|  7> nprocs 18
|  8> end
|  9>
| 10> %geom Constraints
| 11>         { A * 0 * C }
| 12>     end
| 13> end
| 14> * xyz 0 2
| 15> C 0.00 0.00 0.00
| 16> H 0.9194413008 0.0000000000 -0.5665930589
| 17> H -0.4597206504 0.7962595238 -0.5665930589
| 18> H -0.4597206504 -0.7962595238 -0.5665930589
| 19> **                         ****END OF INPUT****
 Total Charge           Charge          ....    0
 Multiplicity           Mult            ....    2
 Number of Electrons    NEL             ....    9
Dispersion correction           -0.000005211
FINAL SINGLE POINT ENERGY       -39.793670584976
Dispersion correction            ... done
Dispersion correction           -0.000006068
FINAL SINGLE POINT ENERGY       -39.794568574477
Dispersion correction            ... done
Dispersion correction           -0.000006125
FINAL SINGLE POINT ENERGY       -39.794571868177
Dispersion correction            ... done
                    ***********************HURRAY********************

CARTESIAN COORDINATES (ANGSTROEM)
---------------------------------
  C      0.000011    0.000000    0.008681
  H      0.938211    0.000000   -0.569482
  H     -0.469111    0.812535   -0.569489
  H     -0.469111   -0.812535   -0.569489

 Multiplicity           Mult            ....    2
 Number of Electrons    NEL             ....    9
 Basis Dimension        Dim             ....   64

ORBITAL ENERGIES
----------------
                 SPIN UP ORBITALS
  NO   OCC          E(Eh)            E(eV)
   0   1.0000     -10.304883      -280.4101
   1   1.0000      -0.819875       -22.3099
   2   1.0000      -0.482945       -13.1416
   3   1.0000      -0.482930       -13.1412
   4   1.0000      -0.401190       -10.9169
   5   0.0000       0.073444         1.9985
   6   0.0000       0.159775         4.3477
   7   0.0000       0.159781         4.3479
   8   0.0000       0.167720         4.5639
   9   0.0000       0.192981         5.2513

                 SPIN DOWN ORBITALS
  NO   OCC          E(Eh)            E(eV)
   0   1.0000     -10.292834      -280.0823
   1   1.0000      -0.785661       -21.3789
   2   1.0000      -0.466889       -12.7047
   3   1.0000      -0.466887       -12.7046
   4   0.0000      -0.046182        -1.2567
   5   0.0000       0.081244         2.2108
   6   0.0000       0.165591         4.5059
   7   0.0000       0.165593         4.5060
   8   0.0000       0.200145         5.4462

MULLIKEN ATOMIC CHARGES AND SPIN POPULATIONS
--------------------------------------------
   0 C :   -0.654385    0.904528
   1 H :    0.217843    0.031880
   2 H :    0.218270    0.031796
   3 H :    0.218272    0.031796
Sum of atomic charges         :   -0.0000000

LOEWDIN ATOMIC CHARGES AND SPIN POPULATIONS
-------------------------------------------
   0 C :    0.038382    0.842817
   1 H :   -0.012824    0.052401
   2 H :   -0.012779    0.052391
   3 H :   -0.012779    0.052391

  Mayer bond orders larger than 0.100000
B(  0-C ,  1-H ) :   1.0253 B(  0-C ,  2-H ) :   1.0247 B(  0-C ,  3-H ) :   1.0247

Dispersion correction           -0.000006128
FINAL SINGLE POINT ENERGY       -39.794571883706

DIPOLE MOMENT
-------------
                                X             Y             Z
Electronic contribution:      0.00020      -0.00000       0.97918
Nuclear contribution   :     -0.00003      -0.00000      -1.29998
                        -----------------------------------------
Total Dipole Moment    :      0.00016      -0.00000      -0.32079
                        -----------------------------------------
Magnitude (a.u.)       :      0.32079
Magnitude (Debye)      :      0.81539

Dispersion correction in the Hessian             ... done   (      0.1 sec)

VIBRATIONAL FREQUENCIES
-----------------------

Scaling factor for frequencies =  1.000000000  (already applied!)

   0:         0.00 cm**-1
   1:         0.00 cm**-1
   2:         0.00 cm**-1
   3:         0.00 cm**-1
   4:         0.00 cm**-1
   5:         0.00 cm**-1
   6:      1367.45 cm**-1
   7:      1367.92 cm**-1
   8:      1377.43 cm**-1
   9:      3031.61 cm**-1
  10:      3031.72 cm**-1
  11:      3032.91 cm**-1

IR SPECTRUM
-----------

 Mode   freq       eps      Int      T**2         TX        TY        TZ
       cm**-1   L/(mol*cm) km/mol    a.u.
----------------------------------------------------------------------------
  6:   1367.45   0.001229    6.21  0.000280  (-0.000000 -0.016746  0.000000)
  7:   1367.92   0.001261    6.37  0.000288  ( 0.016769 -0.000000 -0.002540)
  8:   1377.43   0.001198    6.05  0.000271  (-0.002448 -0.000000 -0.016289)
  9:   3031.61   0.008839   44.67  0.000910  (-0.030163 -0.000008  0.000066)
 10:   3031.72   0.009045   45.71  0.000931  ( 0.000008 -0.030514 -0.000000)
 11:   3032.91   0.000053    0.27  0.000005  (-0.002004  0.000003 -0.001179)

--------------------------
THERMOCHEMISTRY AT 298.15K
--------------------------

Temperature         ... 298.15 K
Pressure            ... 1.00 atm
Total Mass          ... 15.03 AMU

Throughout the following assumptions are being made:
  (1) The electronic state is orbitally nondegenerate
      but the spin degeneracy is treated
  (2) There are no thermally accessible electronically excited states
  (3) Hindered rotations indicated by low frequency modes are not
      treated as such but are treated as vibrations and this may
      cause some error
  (4) All equations used are the standard statistical mechanics
      equations for an ideal gas
  (5) All vibrations are strictly harmonic

freq.    1367.45  E(vib)   ...       0.01
freq.    1367.92  E(vib)   ...       0.01
freq.    1377.43  E(vib)   ...       0.01
freq.    3031.61  E(vib)   ...       0.00
freq.    3031.72  E(vib)   ...       0.00
freq.    3032.91  E(vib)   ...       0.00

------------
INNER ENERGY
------------

The inner energy is: U= E(el) + E(ZPE) + E(vib) + E(rot) + E(trans)
    E(el)   - is the total energy from the electronic structure calculation
              = E(kin-el) + E(nuc-el) + E(el-el) + E(nuc-nuc)
    E(ZPE)  - the the zero temperature vibrational energy from the frequency calculation
    E(vib)  - the the finite temperature correction to E(ZPE) due to population
              of excited vibrational states
    E(rot)  - is the rotational thermal energy
    E(trans)- is the translational thermal energy

Summary of contributions to the inner energy U:
Electronic energy                ...    -39.79457188 Eh
Zero point energy                ...      0.03009240 Eh      18.88 kcal/mol
Thermal vibrational correction   ...      0.00002516 Eh       0.02 kcal/mol
Thermal rotational correction    ...      0.00141627 Eh       0.89 kcal/mol
Thermal translational correction ...      0.00141627 Eh       0.89 kcal/mol
-----------------------------------------------------------------------
Total thermal energy                    -39.76162178 Eh

Summary of corrections to the electronic energy:
(perhaps to be used in another calculation)
Total thermal correction                  0.00285770 Eh       1.79 kcal/mol
Non-thermal (ZPE) correction              0.03009240 Eh      18.88 kcal/mol
-----------------------------------------------------------------------
Total correction                          0.03295010 Eh      20.68 kcal/mol

--------
ENTHALPY
--------

The enthalpy is H = U + kB*T
                kB is Boltzmann's constant
Total free energy                 ...    -39.76162178 Eh
Thermal Enthalpy correction       ...      0.00094421 Eh       0.59 kcal/mol
-----------------------------------------------------------------------
Total Enthalpy                    ...    -39.76067757 Eh

Note: Rotational entropy computed according to Herzberg
Infrared and Raman Spectra, Chapter V,1, Van Nostrand Reinhold, 1945
Point Group:  C3v, Symmetry Number:   3
Rotational constants in cm-1:     7.883012     7.882805     6.332879

Vibrational entropy computed according to the QRRHO of S. Grimme
Chem.Eur.J. 2012 18 9955

-------
ENTROPY
-------

The entropy contributions are T*S = T*(S(el)+S(vib)+S(rot)+S(trans))
     S(el)   - electronic entropy
     S(vib)  - vibrational entropy
     S(rot)  - rotational entropy
     S(trans)- translational entropy
The entropies will be listed as multiplied by the temperature to get
units of energy

Electronic entropy                ...      0.00065446 Eh      0.41 kcal/mol
Vibrational entropy               ...      0.00002896 Eh      0.02 kcal/mol
Rotational entropy                ...      0.00565271 Eh      3.55 kcal/mol
Translational entropy             ...      0.01618771 Eh     10.16 kcal/mol
-----------------------------------------------------------------------
Final entropy term                ...      0.02252384 Eh     14.13 kcal/mol

In case the symmetry of your molecule has not been determined correctly
or in case you have a reason to use a different symmetry number we print
out the resulting rotational entropy values for sn=1,12 :
 --------------------------------------------------------
|  sn= 1 | S(rot)=       0.00669000 Eh      4.20 kcal/mol|
|  sn= 2 | S(rot)=       0.00603554 Eh      3.79 kcal/mol|
|  sn= 3 | S(rot)=       0.00565271 Eh      3.55 kcal/mol|
|  sn= 4 | S(rot)=       0.00538109 Eh      3.38 kcal/mol|
|  sn= 5 | S(rot)=       0.00517040 Eh      3.24 kcal/mol|
|  sn= 6 | S(rot)=       0.00499825 Eh      3.14 kcal/mol|
|  sn= 7 | S(rot)=       0.00485271 Eh      3.05 kcal/mol|
|  sn= 8 | S(rot)=       0.00472663 Eh      2.97 kcal/mol|
|  sn= 9 | S(rot)=       0.00461542 Eh      2.90 kcal/mol|
|  sn=10 | S(rot)=       0.00451594 Eh      2.83 kcal/mol|
|  sn=11 | S(rot)=       0.00442595 Eh      2.78 kcal/mol|
|  sn=12 | S(rot)=       0.00434380 Eh      2.73 kcal/mol|
 --------------------------------------------------------

-------------------
GIBBS FREE ENERGY
-------------------

The Gibbs free energy is G = H - T*S

Total enthalpy                    ...    -39.76067757 Eh
Total entropy correction          ...     -0.02252384 Eh    -14.13 kcal/mol
-----------------------------------------------------------------------
Final Gibbs free energy         ...    -39.78320141 Eh

For completeness - the Gibbs free energy minus the electronic energy
G-E(el)                           ...      0.01137047 Eh      7.14 kcal/mol

                             ****ORCA TERMINATED NORMALLY****
TOTAL RUN TIME: 0 days 0 hours 1 minutes 10 seconds 803 msec
