                         Program Version 5.0.4 -  RELEASE  -
|  1> ! UKS TightSCF wB97x-D3 def2-TZVPD xyzfile opt freq
|  2>
|  3> # CH3 radical 115.5 degrees fixed
|  4>
|  5> %maxcore 1000
|  6> %pal
|  7> nprocs 18
|  8> end
|  9>
| 10> %geom Constraints
| 11>         { A * 0 * C }
| 12>     end
| 13> end
| 14> * xyz 0 2
| 15> C 0.00 0.00 0.00
| 16> H 1.0546873607 0.0000000000 -0.2324533741
| 17> H -0.5273436804 0.9133860474 -0.2324533741
| 18> H -0.5273436804 -0.9133860474 -0.2324533741
| 19> **                         ****END OF INPUT****
 Total Charge           Charge          ....    0
 Multiplicity           Mult            ....    2
 Number of Electrons    NEL             ....    9
Dispersion correction           -0.000015287
FINAL SINGLE POINT ENERGY       -39.836151694405
Dispersion correction            ... done
Dispersion correction           -0.000015725
FINAL SINGLE POINT ENERGY       -39.836181308886
Dispersion correction            ... done
                    ***********************HURRAY********************

CARTESIAN COORDINATES (ANGSTROEM)
---------------------------------
  C     -0.000007    0.000000    0.000626
  H      1.058483    0.000000   -0.232663
  H     -0.529238    0.916656   -0.232661
  H     -0.529238   -0.916656   -0.232661

 Multiplicity           Mult            ....    2
 Number of Electrons    NEL             ....    9
 Basis Dimension        Dim             ....   64

ORBITAL ENERGIES
----------------
                 SPIN UP ORBITALS
  NO   OCC          E(Eh)            E(eV)
   0   1.0000     -10.288907      -279.9754
   1   1.0000      -0.804520       -21.8921
   2   1.0000      -0.515227       -14.0201
   3   1.0000      -0.515206       -14.0195
   4   1.0000      -0.340711        -9.2712
   5   0.0000       0.076189         2.0732
   6   0.0000       0.161190         4.3862
   7   0.0000       0.161198         4.3864
   8   0.0000       0.200429         5.4540
   9   0.0000       0.200435         5.4541

                 SPIN DOWN ORBITALS
  NO   OCC          E(Eh)            E(eV)
   0   1.0000     -10.278502      -279.6923
   1   1.0000      -0.761525       -20.7221
   2   1.0000      -0.501992       -13.6599
   3   1.0000      -0.501982       -13.6596
   4   0.0000       0.001022         0.0278
   5   0.0000       0.086028         2.3409
   6   0.0000       0.165414         4.5011
   7   0.0000       0.165418         4.5013
   8   0.0000       0.201719         5.4891

MULLIKEN ATOMIC CHARGES AND SPIN POPULATIONS
--------------------------------------------
   0 C :   -0.723306    0.901823
   1 H :    0.240963    0.032683
   2 H :    0.241168    0.032747
   3 H :    0.241175    0.032747
Sum of atomic charges         :   -0.0000000

LOEWDIN ATOMIC CHARGES AND SPIN POPULATIONS
-------------------------------------------
   0 C :    0.056885    0.835462
   1 H :   -0.018956    0.054860
   2 H :   -0.018964    0.054839
   3 H :   -0.018964    0.054839

  Mayer bond orders larger than 0.100000
B(  0-C ,  1-H ) :   0.9660 B(  0-C ,  2-H ) :   0.9656 B(  0-C ,  3-H ) :   0.9656

Dispersion correction           -0.000015730
FINAL SINGLE POINT ENERGY       -39.836181314787

DIPOLE MOMENT
-------------
                                X             Y             Z
Electronic contribution:      0.00006      -0.00000       0.34565
Nuclear contribution   :      0.00002      -0.00000      -0.52453
                        -----------------------------------------
Total Dipole Moment    :      0.00008      -0.00000      -0.17888
                        -----------------------------------------
Magnitude (a.u.)       :      0.17888
Magnitude (Debye)      :      0.45469

Dispersion correction in the Hessian             ... done   (      0.1 sec)

VIBRATIONAL FREQUENCIES
-----------------------

Scaling factor for frequencies =  1.000000000  (already applied!)

   0:         0.00 cm**-1
   1:         0.00 cm**-1
   2:         0.00 cm**-1
   3:         0.00 cm**-1
   4:         0.00 cm**-1
   5:         0.00 cm**-1
   6:       911.74 cm**-1
   7:      1416.44 cm**-1
   8:      1423.63 cm**-1
   9:      3106.22 cm**-1
  10:      3258.75 cm**-1
  11:      3259.56 cm**-1

IR SPECTRUM
-----------

 Mode   freq       eps      Int      T**2         TX        TY        TZ
       cm**-1   L/(mol*cm) km/mol    a.u.
----------------------------------------------------------------------------
  6:    911.74   0.008374   42.32  0.002866  (-0.000120  0.000000  0.053537)
  7:   1416.44   0.000574    2.90  0.000126  ( 0.011234 -0.000000 -0.000545)
  8:   1423.63   0.000570    2.88  0.000125  ( 0.000000  0.011175 -0.000000)
  9:   3106.22   0.000008    0.04  0.000001  ( 0.000094 -0.000000 -0.000889)
 10:   3258.75   0.002149   10.86  0.000206  (-0.014347 -0.000004 -0.000021)
 11:   3259.56   0.002139   10.81  0.000205  (-0.000004  0.014311 -0.000000)

--------------------------
THERMOCHEMISTRY AT 298.15K
--------------------------

Temperature         ... 298.15 K
Pressure            ... 1.00 atm
Total Mass          ... 15.03 AMU

Throughout the following assumptions are being made:
  (1) The electronic state is orbitally nondegenerate
      but the spin degeneracy is treated
  (2) There are no thermally accessible electronically excited states
  (3) Hindered rotations indicated by low frequency modes are not
      treated as such but are treated as vibrations and this may
      cause some error
  (4) All equations used are the standard statistical mechanics
      equations for an ideal gas
  (5) All vibrations are strictly harmonic

freq.     911.74  E(vib)   ...       0.03
freq.    1416.44  E(vib)   ...       0.00
freq.    1423.63  E(vib)   ...       0.00
freq.    3106.22  E(vib)   ...       0.00
freq.    3258.75  E(vib)   ...       0.00
freq.    3259.56  E(vib)   ...       0.00

------------
INNER ENERGY
------------

The inner energy is: U= E(el) + E(ZPE) + E(vib) + E(rot) + E(trans)
    E(el)   - is the total energy from the electronic structure calculation
              = E(kin-el) + E(nuc-el) + E(el-el) + E(nuc-nuc)
    E(ZPE)  - the the zero temperature vibrational energy from the frequency calculation
    E(vib)  - the the finite temperature correction to E(ZPE) due to population
              of excited vibrational states
    E(rot)  - is the rotational thermal energy
    E(trans)- is the translational thermal energy

Summary of contributions to the inner energy U:
Electronic energy                ...    -39.83618131 Eh
Zero point energy                ...      0.03047357 Eh      19.12 kcal/mol
Thermal vibrational correction   ...      0.00006535 Eh       0.04 kcal/mol
Thermal rotational correction    ...      0.00141627 Eh       0.89 kcal/mol
Thermal translational correction ...      0.00141627 Eh       0.89 kcal/mol
-----------------------------------------------------------------------
Total thermal energy                    -39.80280985 Eh

Summary of corrections to the electronic energy:
(perhaps to be used in another calculation)
Total thermal correction                  0.00289790 Eh       1.82 kcal/mol
Non-thermal (ZPE) correction              0.03047357 Eh      19.12 kcal/mol
-----------------------------------------------------------------------
Total correction                          0.03337147 Eh      20.94 kcal/mol

--------
ENTHALPY
--------

The enthalpy is H = U + kB*T
                kB is Boltzmann's constant
Total free energy                 ...    -39.80280985 Eh
Thermal Enthalpy correction       ...      0.00094421 Eh       0.59 kcal/mol
-----------------------------------------------------------------------
Total Enthalpy                    ...    -39.80186564 Eh

Note: Rotational entropy computed according to Herzberg
Infrared and Raman Spectra, Chapter V,1, Van Nostrand Reinhold, 1945
Point Group:  C3v, Symmetry Number:   3
Rotational constants in cm-1:     9.234868     9.234583     4.975726

Vibrational entropy computed according to the QRRHO of S. Grimme
Chem.Eur.J. 2012 18 9955

-------
ENTROPY
-------

The entropy contributions are T*S = T*(S(el)+S(vib)+S(rot)+S(trans))
     S(el)   - electronic entropy
     S(vib)  - vibrational entropy
     S(rot)  - rotational entropy
     S(trans)- translational entropy
The entropies will be listed as multiplied by the temperature to get
units of energy

Electronic entropy                ...      0.00065446 Eh      0.41 kcal/mol
Vibrational entropy               ...      0.00007906 Eh      0.05 kcal/mol
Rotational entropy                ...      0.00561713 Eh      3.52 kcal/mol
Translational entropy             ...      0.01618771 Eh     10.16 kcal/mol
-----------------------------------------------------------------------
Final entropy term                ...      0.02253835 Eh     14.14 kcal/mol

In case the symmetry of your molecule has not been determined correctly
or in case you have a reason to use a different symmetry number we print
out the resulting rotational entropy values for sn=1,12 :
 --------------------------------------------------------
|  sn= 1 | S(rot)=       0.00665442 Eh      4.18 kcal/mol|
|  sn= 2 | S(rot)=       0.00599996 Eh      3.77 kcal/mol|
|  sn= 3 | S(rot)=       0.00561713 Eh      3.52 kcal/mol|
|  sn= 4 | S(rot)=       0.00534551 Eh      3.35 kcal/mol|
|  sn= 5 | S(rot)=       0.00513482 Eh      3.22 kcal/mol|
|  sn= 6 | S(rot)=       0.00496268 Eh      3.11 kcal/mol|
|  sn= 7 | S(rot)=       0.00481713 Eh      3.02 kcal/mol|
|  sn= 8 | S(rot)=       0.00469105 Eh      2.94 kcal/mol|
|  sn= 9 | S(rot)=       0.00457984 Eh      2.87 kcal/mol|
|  sn=10 | S(rot)=       0.00448036 Eh      2.81 kcal/mol|
|  sn=11 | S(rot)=       0.00439037 Eh      2.75 kcal/mol|
|  sn=12 | S(rot)=       0.00430822 Eh      2.70 kcal/mol|
 --------------------------------------------------------

-------------------
GIBBS FREE ENERGY
-------------------

The Gibbs free energy is G = H - T*S

Total enthalpy                    ...    -39.80186564 Eh
Total entropy correction          ...     -0.02253835 Eh    -14.14 kcal/mol
-----------------------------------------------------------------------
Final Gibbs free energy         ...    -39.82440399 Eh

For completeness - the Gibbs free energy minus the electronic energy
G-E(el)                           ...      0.01177732 Eh      7.39 kcal/mol

                             ****ORCA TERMINATED NORMALLY****
TOTAL RUN TIME: 0 days 0 hours 0 minutes 55 seconds 494 msec
