                         Program Version 5.0.4 -  RELEASE  -
|  1> ! UKS TightSCF wB97x-D3 def2-TZVPD xyzfile opt freq
|  2>
|  3> # CH3 radical 106.0 degrees fixed
|  4>
|  5> %maxcore 1000
|  6> %pal
|  7> nprocs 18
|  8> end
|  9>
| 10> %geom Constraints
| 11>         { A * 0 * C }
| 12>     end
| 13> end
| 14> * xyz 0 2
| 15> C 0.00 0.00 0.00
| 16> H 0.9959596417 0.0000000000 -0.4176893488
| 17> H -0.4979798208 0.8625263509 -0.4176893488
| 18> H -0.4979798208 -0.8625263509 -0.4176893488
| 19> **                         ****END OF INPUT****
 Total Charge           Charge          ....    0
 Multiplicity           Mult            ....    2
 Number of Electrons    NEL             ....    9
Dispersion correction           -0.000009734
FINAL SINGLE POINT ENERGY       -39.821925061670
Dispersion correction            ... done
Dispersion correction           -0.000010622
FINAL SINGLE POINT ENERGY       -39.822212955357
Dispersion correction            ... done
                    ***********************HURRAY********************

CARTESIAN COORDINATES (ANGSTROEM)
---------------------------------
  C      0.000017    0.000000    0.003560
  H      1.007255    0.000000   -0.418871
  H     -0.503636    0.872344   -0.418878
  H     -0.503636   -0.872344   -0.418878

 Multiplicity           Mult            ....    2
 Number of Electrons    NEL             ....    9
 Basis Dimension        Dim             ....   64

ORBITAL ENERGIES
----------------
                 SPIN UP ORBITALS
  NO   OCC          E(Eh)            E(eV)
   0   1.0000     -10.296102      -280.1712
   1   1.0000      -0.810327       -22.0501
   2   1.0000      -0.501100       -13.6356
   3   1.0000      -0.501062       -13.6346
   4   1.0000      -0.369488       -10.0543
   5   0.0000       0.075433         2.0526
   6   0.0000       0.160821         4.3762
   7   0.0000       0.160828         4.3763
   8   0.0000       0.188775         5.1368
   9   0.0000       0.195035         5.3072

                 SPIN DOWN ORBITALS
  NO   OCC          E(Eh)            E(eV)
   0   1.0000     -10.284942      -279.8675
   1   1.0000      -0.771902       -21.0045
   2   1.0000      -0.486449       -13.2369
   3   1.0000      -0.486414       -13.2360
   4   0.0000      -0.020423        -0.5557
   5   0.0000       0.084241         2.2923
   6   0.0000       0.165849         4.5130
   7   0.0000       0.165849         4.5130
   8   0.0000       0.199585         5.4310

MULLIKEN ATOMIC CHARGES AND SPIN POPULATIONS
--------------------------------------------
   0 C :   -0.685553    0.886082
   1 H :    0.228214    0.037919
   2 H :    0.228670    0.038000
   3 H :    0.228670    0.037999
Sum of atomic charges         :   -0.0000000

LOEWDIN ATOMIC CHARGES AND SPIN POPULATIONS
-------------------------------------------
   0 C :    0.048007    0.837447
   1 H :   -0.016054    0.054191
   2 H :   -0.015977    0.054181
   3 H :   -0.015977    0.054181

  Mayer bond orders larger than 0.100000
B(  0-C ,  1-H ) :   0.9995 B(  0-C ,  2-H ) :   0.9989 B(  0-C ,  3-H ) :   0.9989

Dispersion correction           -0.000010656
FINAL SINGLE POINT ENERGY       -39.822213337636

DIPOLE MOMENT
-------------
                                X             Y             Z
Electronic contribution:      0.00007      -0.00000       0.67781
Nuclear contribution   :     -0.00005      -0.00000      -0.94982
                        -----------------------------------------
Total Dipole Moment    :      0.00002      -0.00000      -0.27201
                        -----------------------------------------
Magnitude (a.u.)       :      0.27201
Magnitude (Debye)      :      0.69139

Dispersion correction in the Hessian             ... done   (      0.1 sec)

VIBRATIONAL FREQUENCIES
-----------------------

Scaling factor for frequencies =  1.000000000  (already applied!)

   0:         0.00 cm**-1
   1:         0.00 cm**-1
   2:         0.00 cm**-1
   3:         0.00 cm**-1
   4:         0.00 cm**-1
   5:         0.00 cm**-1
   6:      1215.12 cm**-1
   7:      1408.74 cm**-1
   8:      1411.51 cm**-1
   9:      3066.68 cm**-1
  10:      3152.81 cm**-1
  11:      3152.95 cm**-1

IR SPECTRUM
-----------

 Mode   freq       eps      Int      T**2         TX        TY        TZ
       cm**-1   L/(mol*cm) km/mol    a.u.
----------------------------------------------------------------------------
  6:   1215.12   0.002690   13.59  0.000691  ( 0.000076 -0.000000  0.026284)
  7:   1408.74   0.000721    3.64  0.000160  ( 0.000000 -0.012638 -0.000000)
  8:   1411.51   0.000707    3.57  0.000156  (-0.012499 -0.000000 -0.000218)
  9:   3066.68   0.000017    0.09  0.000002  ( 0.000056  0.000000  0.001321)
 10:   3152.81   0.005355   27.06  0.000530  ( 0.000038  0.023023  0.000000)
 11:   3152.95   0.005230   26.43  0.000518  ( 0.022752 -0.000038 -0.000004)

--------------------------
THERMOCHEMISTRY AT 298.15K
--------------------------

Temperature         ... 298.15 K
Pressure            ... 1.00 atm
Total Mass          ... 15.03 AMU

Throughout the following assumptions are being made:
  (1) The electronic state is orbitally nondegenerate
      but the spin degeneracy is treated
  (2) There are no thermally accessible electronically excited states
  (3) Hindered rotations indicated by low frequency modes are not
      treated as such but are treated as vibrations and this may
      cause some error
  (4) All equations used are the standard statistical mechanics
      equations for an ideal gas
  (5) All vibrations are strictly harmonic

freq.    1215.12  E(vib)   ...       0.01
freq.    1408.74  E(vib)   ...       0.00
freq.    1411.51  E(vib)   ...       0.00
freq.    3066.68  E(vib)   ...       0.00
freq.    3152.81  E(vib)   ...       0.00
freq.    3152.95  E(vib)   ...       0.00

------------
INNER ENERGY
------------

The inner energy is: U= E(el) + E(ZPE) + E(vib) + E(rot) + E(trans)
    E(el)   - is the total energy from the electronic structure calculation
              = E(kin-el) + E(nuc-el) + E(el-el) + E(nuc-nuc)
    E(ZPE)  - the the zero temperature vibrational energy from the frequency calculation
    E(vib)  - the the finite temperature correction to E(ZPE) due to population
              of excited vibrational states
    E(rot)  - is the rotational thermal energy
    E(trans)- is the translational thermal energy

Summary of contributions to the inner energy U:
Electronic energy                ...    -39.82221334 Eh
Zero point energy                ...      0.03054524 Eh      19.17 kcal/mol
Thermal vibrational correction   ...      0.00003005 Eh       0.02 kcal/mol
Thermal rotational correction    ...      0.00141627 Eh       0.89 kcal/mol
Thermal translational correction ...      0.00141627 Eh       0.89 kcal/mol
-----------------------------------------------------------------------
Total thermal energy                    -39.78880551 Eh

Summary of corrections to the electronic energy:
(perhaps to be used in another calculation)
Total thermal correction                  0.00286259 Eh       1.80 kcal/mol
Non-thermal (ZPE) correction              0.03054524 Eh      19.17 kcal/mol
-----------------------------------------------------------------------
Total correction                          0.03340783 Eh      20.96 kcal/mol

--------
ENTHALPY
--------

The enthalpy is H = U + kB*T
                kB is Boltzmann's constant
Total free energy                 ...    -39.78880551 Eh
Thermal Enthalpy correction       ...      0.00094421 Eh       0.59 kcal/mol
-----------------------------------------------------------------------
Total Enthalpy                    ...    -39.78786130 Eh

Note: Rotational entropy computed according to Herzberg
Infrared and Raman Spectra, Chapter V,1, Van Nostrand Reinhold, 1945
Point Group:  C3v, Symmetry Number:   3
Rotational constants in cm-1:     8.578360     8.577881     5.494349

Vibrational entropy computed according to the QRRHO of S. Grimme
Chem.Eur.J. 2012 18 9955

-------
ENTROPY
-------

The entropy contributions are T*S = T*(S(el)+S(vib)+S(rot)+S(trans))
     S(el)   - electronic entropy
     S(vib)  - vibrational entropy
     S(rot)  - rotational entropy
     S(trans)- translational entropy
The entropies will be listed as multiplied by the temperature to get
units of energy

Electronic entropy                ...      0.00065446 Eh      0.41 kcal/mol
Vibrational entropy               ...      0.00003484 Eh      0.02 kcal/mol
Rotational entropy                ...      0.00563996 Eh      3.54 kcal/mol
Translational entropy             ...      0.01618771 Eh     10.16 kcal/mol
-----------------------------------------------------------------------
Final entropy term                ...      0.02251697 Eh     14.13 kcal/mol

In case the symmetry of your molecule has not been determined correctly
or in case you have a reason to use a different symmetry number we print
out the resulting rotational entropy values for sn=1,12 :
 --------------------------------------------------------
|  sn= 1 | S(rot)=       0.00667725 Eh      4.19 kcal/mol|
|  sn= 2 | S(rot)=       0.00602280 Eh      3.78 kcal/mol|
|  sn= 3 | S(rot)=       0.00563996 Eh      3.54 kcal/mol|
|  sn= 4 | S(rot)=       0.00536834 Eh      3.37 kcal/mol|
|  sn= 5 | S(rot)=       0.00515765 Eh      3.24 kcal/mol|
|  sn= 6 | S(rot)=       0.00498551 Eh      3.13 kcal/mol|
|  sn= 7 | S(rot)=       0.00483996 Eh      3.04 kcal/mol|
|  sn= 8 | S(rot)=       0.00471388 Eh      2.96 kcal/mol|
|  sn= 9 | S(rot)=       0.00460267 Eh      2.89 kcal/mol|
|  sn=10 | S(rot)=       0.00450320 Eh      2.83 kcal/mol|
|  sn=11 | S(rot)=       0.00441321 Eh      2.77 kcal/mol|
|  sn=12 | S(rot)=       0.00433105 Eh      2.72 kcal/mol|
 --------------------------------------------------------

-------------------
GIBBS FREE ENERGY
-------------------

The Gibbs free energy is G = H - T*S

Total enthalpy                    ...    -39.78786130 Eh
Total entropy correction          ...     -0.02251697 Eh    -14.13 kcal/mol
-----------------------------------------------------------------------
Final Gibbs free energy         ...    -39.81037827 Eh

For completeness - the Gibbs free energy minus the electronic energy
G-E(el)                           ...      0.01183507 Eh      7.43 kcal/mol

                             ****ORCA TERMINATED NORMALLY****
TOTAL RUN TIME: 0 days 0 hours 0 minutes 55 seconds 273 msec
