                         Program Version 5.0.4 -  RELEASE  -
|  1> ! UKS TightSCF wB97x-D3 def2-TZVPD xyzfile opt freq
|  2>
|  3> # CH3 radical 117.0 degrees fixed
|  4>
|  5> %maxcore 1000
|  6> %pal
|  7> nprocs 18
|  8> end
|  9>
| 10> %geom Constraints
| 11>         { A * 0 * C }
| 12>     end
| 13> end
| 14> * xyz 0 2
| 15> C 0.00 0.00 0.00
| 16> H 1.0633075814 0.0000000000 -0.1891480568
| 17> H -0.5316537907 0.9208513775 -0.1891480568
| 18> H -0.5316537907 -0.9208513775 -0.1891480568
| 19> **                         ****END OF INPUT****
 Total Charge           Charge          ....    0
 Multiplicity           Mult            ....    2
 Number of Electrons    NEL             ....    9
Dispersion correction           -0.000016301
FINAL SINGLE POINT ENERGY       -39.837538831589
Dispersion correction            ... done
Dispersion correction           -0.000016597
FINAL SINGLE POINT ENERGY       -39.837550832751
Dispersion correction            ... done
                    ***********************HURRAY********************

CARTESIAN COORDINATES (ANGSTROEM)
---------------------------------
  C     -0.000005    0.000000    0.000323
  H      1.065736    0.000000   -0.189256
  H     -0.532866    0.922941   -0.189255
  H     -0.532866   -0.922941   -0.189255

 Multiplicity           Mult            ....    2
 Number of Electrons    NEL             ....    9
 Basis Dimension        Dim             ....   64

ORBITAL ENERGIES
----------------
                 SPIN UP ORBITALS
  NO   OCC          E(Eh)            E(eV)
   0   1.0000     -10.287748      -279.9439
   1   1.0000      -0.803758       -21.8714
   2   1.0000      -0.517304       -14.0766
   3   1.0000      -0.517293       -14.0763
   4   1.0000      -0.336047        -9.1443
   5   0.0000       0.076265         2.0753
   6   0.0000       0.161210         4.3868
   7   0.0000       0.161213         4.3868
   8   0.0000       0.199730         5.4349
   9   0.0000       0.201937         5.4950

                 SPIN DOWN ORBITALS
  NO   OCC          E(Eh)            E(eV)
   0   1.0000     -10.277463      -279.6640
   1   1.0000      -0.759919       -20.6784
   2   1.0000      -0.504336       -13.7237
   3   1.0000      -0.504305       -13.7228
   4   0.0000       0.004244         0.1155
   5   0.0000       0.086247         2.3469
   6   0.0000       0.165225         4.4960
   7   0.0000       0.165230         4.4961
   8   0.0000       0.202738         5.5168

MULLIKEN ATOMIC CHARGES AND SPIN POPULATIONS
--------------------------------------------
   0 C :   -0.731608    0.908802
   1 H :    0.243745    0.030324
   2 H :    0.243932    0.030438
   3 H :    0.243931    0.030436
Sum of atomic charges         :    0.0000000

LOEWDIN ATOMIC CHARGES AND SPIN POPULATIONS
-------------------------------------------
   0 C :    0.058238    0.835448
   1 H :   -0.019413    0.054857
   2 H :   -0.019412    0.054847
   3 H :   -0.019412    0.054847

  Mayer bond orders larger than 0.100000
B(  0-C ,  1-H ) :   0.9589 B(  0-C ,  2-H ) :   0.9585 B(  0-C ,  3-H ) :   0.9586

Dispersion correction           -0.000016599
FINAL SINGLE POINT ENERGY       -39.837550833992

DIPOLE MOMENT
-------------
                                X             Y             Z
Electronic contribution:     -0.00004      -0.00000       0.27624
Nuclear contribution   :      0.00002      -0.00000      -0.42626
                        -----------------------------------------
Total Dipole Moment    :     -0.00003      -0.00000      -0.15002
                        -----------------------------------------
Magnitude (a.u.)       :      0.15002
Magnitude (Debye)      :      0.38131

Dispersion correction in the Hessian             ... done   (      0.1 sec)

VIBRATIONAL FREQUENCIES
-----------------------

Scaling factor for frequencies =  1.000000000  (already applied!)

   0:         0.00 cm**-1
   1:         0.00 cm**-1
   2:         0.00 cm**-1
   3:         0.00 cm**-1
   4:         0.00 cm**-1
   5:         0.00 cm**-1
   6:       812.61 cm**-1
   7:      1412.81 cm**-1
   8:      1418.44 cm**-1
   9:      3114.55 cm**-1
  10:      3276.53 cm**-1
  11:      3277.56 cm**-1

IR SPECTRUM
-----------

 Mode   freq       eps      Int      T**2         TX        TY        TZ
       cm**-1   L/(mol*cm) km/mol    a.u.
----------------------------------------------------------------------------
  6:    812.61   0.010225   51.67  0.003926  (-0.000158  0.000000  0.062661)
  7:   1412.81   0.000559    2.83  0.000124  ( 0.011104 -0.000000 -0.000457)
  8:   1418.44   0.000564    2.85  0.000124  ( 0.000000  0.011136 -0.000000)
  9:   3114.55   0.000005    0.03  0.000001  (-0.000112  0.000000  0.000699)
 10:   3276.53   0.001698    8.58  0.000162  ( 0.012715  0.000002  0.000029)
 11:   3277.56   0.001674    8.46  0.000159  (-0.000002  0.012625 -0.000000)

--------------------------
THERMOCHEMISTRY AT 298.15K
--------------------------

Temperature         ... 298.15 K
Pressure            ... 1.00 atm
Total Mass          ... 15.03 AMU

Throughout the following assumptions are being made:
  (1) The electronic state is orbitally nondegenerate
      but the spin degeneracy is treated
  (2) There are no thermally accessible electronically excited states
  (3) Hindered rotations indicated by low frequency modes are not
      treated as such but are treated as vibrations and this may
      cause some error
  (4) All equations used are the standard statistical mechanics
      equations for an ideal gas
  (5) All vibrations are strictly harmonic

freq.     812.61  E(vib)   ...       0.05
freq.    1412.81  E(vib)   ...       0.00
freq.    1418.44  E(vib)   ...       0.00
freq.    3114.55  E(vib)   ...       0.00
freq.    3276.53  E(vib)   ...       0.00
freq.    3277.56  E(vib)   ...       0.00

------------
INNER ENERGY
------------

The inner energy is: U= E(el) + E(ZPE) + E(vib) + E(rot) + E(trans)
    E(el)   - is the total energy from the electronic structure calculation
              = E(kin-el) + E(nuc-el) + E(el-el) + E(nuc-nuc)
    E(ZPE)  - the the zero temperature vibrational energy from the frequency calculation
    E(vib)  - the the finite temperature correction to E(ZPE) due to population
              of excited vibrational states
    E(rot)  - is the rotational thermal energy
    E(trans)- is the translational thermal energy

Summary of contributions to the inner energy U:
Electronic energy                ...    -39.83755083 Eh
Zero point energy                ...      0.03032809 Eh      19.03 kcal/mol
Thermal vibrational correction   ...      0.00008880 Eh       0.06 kcal/mol
Thermal rotational correction    ...      0.00141627 Eh       0.89 kcal/mol
Thermal translational correction ...      0.00141627 Eh       0.89 kcal/mol
-----------------------------------------------------------------------
Total thermal energy                    -39.80430140 Eh

Summary of corrections to the electronic energy:
(perhaps to be used in another calculation)
Total thermal correction                  0.00292134 Eh       1.83 kcal/mol
Non-thermal (ZPE) correction              0.03032809 Eh      19.03 kcal/mol
-----------------------------------------------------------------------
Total correction                          0.03324943 Eh      20.86 kcal/mol

--------
ENTHALPY
--------

The enthalpy is H = U + kB*T
                kB is Boltzmann's constant
Total free energy                 ...    -39.80430140 Eh
Thermal Enthalpy correction       ...      0.00094421 Eh       0.59 kcal/mol
-----------------------------------------------------------------------
Total Enthalpy                    ...    -39.80335719 Eh

Note: Rotational entropy computed according to Herzberg
Infrared and Raman Spectra, Chapter V,1, Van Nostrand Reinhold, 1945
Point Group:  C3v, Symmetry Number:   3
Rotational constants in cm-1:     9.344104     9.343877     4.908203

Vibrational entropy computed according to the QRRHO of S. Grimme
Chem.Eur.J. 2012 18 9955

-------
ENTROPY
-------

The entropy contributions are T*S = T*(S(el)+S(vib)+S(rot)+S(trans))
     S(el)   - electronic entropy
     S(vib)  - vibrational entropy
     S(rot)  - rotational entropy
     S(trans)- translational entropy
The entropies will be listed as multiplied by the temperature to get
units of energy

Electronic entropy                ...      0.00065446 Eh      0.41 kcal/mol
Vibrational entropy               ...      0.00010980 Eh      0.07 kcal/mol
Rotational entropy                ...      0.00561248 Eh      3.52 kcal/mol
Translational entropy             ...      0.01618771 Eh     10.16 kcal/mol
-----------------------------------------------------------------------
Final entropy term                ...      0.02256444 Eh     14.16 kcal/mol

In case the symmetry of your molecule has not been determined correctly
or in case you have a reason to use a different symmetry number we print
out the resulting rotational entropy values for sn=1,12 :
 --------------------------------------------------------
|  sn= 1 | S(rot)=       0.00664977 Eh      4.17 kcal/mol|
|  sn= 2 | S(rot)=       0.00599531 Eh      3.76 kcal/mol|
|  sn= 3 | S(rot)=       0.00561248 Eh      3.52 kcal/mol|
|  sn= 4 | S(rot)=       0.00534085 Eh      3.35 kcal/mol|
|  sn= 5 | S(rot)=       0.00513016 Eh      3.22 kcal/mol|
|  sn= 6 | S(rot)=       0.00495802 Eh      3.11 kcal/mol|
|  sn= 7 | S(rot)=       0.00481247 Eh      3.02 kcal/mol|
|  sn= 8 | S(rot)=       0.00468640 Eh      2.94 kcal/mol|
|  sn= 9 | S(rot)=       0.00457519 Eh      2.87 kcal/mol|
|  sn=10 | S(rot)=       0.00447571 Eh      2.81 kcal/mol|
|  sn=11 | S(rot)=       0.00438572 Eh      2.75 kcal/mol|
|  sn=12 | S(rot)=       0.00430356 Eh      2.70 kcal/mol|
 --------------------------------------------------------

-------------------
GIBBS FREE ENERGY
-------------------

The Gibbs free energy is G = H - T*S

Total enthalpy                    ...    -39.80335719 Eh
Total entropy correction          ...     -0.02256444 Eh    -14.16 kcal/mol
-----------------------------------------------------------------------
Final Gibbs free energy         ...    -39.82592164 Eh

For completeness - the Gibbs free energy minus the electronic energy
G-E(el)                           ...      0.01162920 Eh      7.30 kcal/mol

                             ****ORCA TERMINATED NORMALLY****
TOTAL RUN TIME: 0 days 0 hours 0 minutes 53 seconds 325 msec
