                         Program Version 5.0.4 -  RELEASE  -
|  1> ! UKS TightSCF wB97x-D3 def2-TZVPD xyzfile opt freq
|  2>
|  3> # CH3 radical 102.0 degrees fixed
|  4>
|  5> %maxcore 1000
|  6> %pal
|  7> nprocs 18
|  8> end
|  9>
| 10> %geom Constraints
| 11>         { A * 0 * C }
| 12>     end
| 13> end
| 14> * xyz 0 2
| 15> C 0.00 0.00 0.00
| 16> H 0.9691605289 0.0000000000 -0.4765793420
| 17> H -0.4845802645 0.8393176384 -0.4765793420
| 18> H -0.4845802645 -0.8393176384 -0.4765793420
| 19> **                         ****END OF INPUT****
 Total Charge           Charge          ....    0
 Multiplicity           Mult            ....    2
 Number of Electrons    NEL             ....    9
Dispersion correction           -0.000007858
FINAL SINGLE POINT ENERGY       -39.813127036817
Dispersion correction            ... done
Dispersion correction           -0.000008779
FINAL SINGLE POINT ENERGY       -39.813594805923
Dispersion correction            ... done
Dispersion correction           -0.000008823
FINAL SINGLE POINT ENERGY       -39.813595771863
Dispersion correction            ... done
                    ***********************HURRAY********************

CARTESIAN COORDINATES (ANGSTROEM)
---------------------------------
  C      0.000017    0.000000    0.005215
  H      0.983279    0.000000   -0.478312
  H     -0.491648    0.851578   -0.478320
  H     -0.491648   -0.851578   -0.478320

 Multiplicity           Mult            ....    2
 Number of Electrons    NEL             ....    9
 Basis Dimension        Dim             ....   64

ORBITAL ENERGIES
----------------
                 SPIN UP ORBITALS
  NO   OCC          E(Eh)            E(eV)
   0   1.0000     -10.299180      -280.2549
   1   1.0000      -0.813381       -22.1332
   2   1.0000      -0.494693       -13.4613
   3   1.0000      -0.494649       -13.4601
   4   1.0000      -0.381211       -10.3733
   5   0.0000       0.074882         2.0376
   6   0.0000       0.160534         4.3684
   7   0.0000       0.160540         4.3685
   8   0.0000       0.180227         4.9042
   9   0.0000       0.193973         5.2783

                 SPIN DOWN ORBITALS
  NO   OCC          E(Eh)            E(eV)
   0   1.0000     -10.287700      -279.9425
   1   1.0000      -0.776603       -21.1324
   2   1.0000      -0.479486       -13.0475
   3   1.0000      -0.479486       -13.0475
   4   0.0000      -0.029757        -0.8097
   5   0.0000       0.083272         2.2659
   6   0.0000       0.165820         4.5122
   7   0.0000       0.165827         4.5124
   8   0.0000       0.199674         5.4334

MULLIKEN ATOMIC CHARGES AND SPIN POPULATIONS
--------------------------------------------
   0 C :   -0.672660    0.890300
   1 H :    0.223895    0.036514
   2 H :    0.224382    0.036593
   3 H :    0.224383    0.036593
Sum of atomic charges         :   -0.0000000

LOEWDIN ATOMIC CHARGES AND SPIN POPULATIONS
-------------------------------------------
   0 C :    0.044315    0.839095
   1 H :   -0.014826    0.053639
   2 H :   -0.014744    0.053633
   3 H :   -0.014744    0.053633

  Mayer bond orders larger than 0.100000
B(  0-C ,  1-H ) :   1.0103 B(  0-C ,  2-H ) :   1.0098 B(  0-C ,  3-H ) :   1.0098

Dispersion correction           -0.000008825
FINAL SINGLE POINT ENERGY       -39.813595774240

DIPOLE MOMENT
-------------
                                X             Y             Z
Electronic contribution:     -0.00000      -0.00000       0.79419
Nuclear contribution   :     -0.00005      -0.00000      -1.08720
                        -----------------------------------------
Total Dipole Moment    :     -0.00005      -0.00000      -0.29301
                        -----------------------------------------
Magnitude (a.u.)       :      0.29301
Magnitude (Debye)      :      0.74476

Dispersion correction in the Hessian             ... done   (      0.1 sec)

VIBRATIONAL FREQUENCIES
-----------------------

Scaling factor for frequencies =  1.000000000  (already applied!)

   0:         0.00 cm**-1
   1:         0.00 cm**-1
   2:         0.00 cm**-1
   3:         0.00 cm**-1
   4:         0.00 cm**-1
   5:         0.00 cm**-1
   6:      1288.62 cm**-1
   7:      1399.66 cm**-1
   8:      1402.20 cm**-1
   9:      3053.66 cm**-1
  10:      3109.34 cm**-1
  11:      3109.41 cm**-1

IR SPECTRUM
-----------

 Mode   freq       eps      Int      T**2         TX        TY        TZ
       cm**-1   L/(mol*cm) km/mol    a.u.
----------------------------------------------------------------------------
  6:   1288.62   0.001872    9.46  0.000453  ( 0.000100 -0.000000  0.021294)
  7:   1399.66   0.000850    4.30  0.000189  ( 0.000000 -0.013766 -0.000000)
  8:   1402.20   0.000854    4.31  0.000190  (-0.013784 -0.000000 -0.000036)
  9:   3053.66   0.000016    0.08  0.000002  ( 0.000058 -0.000000 -0.001294)
 10:   3109.34   0.006557   33.13  0.000658  (-0.025653 -0.000011 -0.000047)
 11:   3109.41   0.006715   33.94  0.000674  (-0.000011  0.025961 -0.000000)

--------------------------
THERMOCHEMISTRY AT 298.15K
--------------------------

Temperature         ... 298.15 K
Pressure            ... 1.00 atm
Total Mass          ... 15.03 AMU

Throughout the following assumptions are being made:
  (1) The electronic state is orbitally nondegenerate
      but the spin degeneracy is treated
  (2) There are no thermally accessible electronically excited states
  (3) Hindered rotations indicated by low frequency modes are not
      treated as such but are treated as vibrations and this may
      cause some error
  (4) All equations used are the standard statistical mechanics
      equations for an ideal gas
  (5) All vibrations are strictly harmonic

freq.    1288.62  E(vib)   ...       0.01
freq.    1399.66  E(vib)   ...       0.00
freq.    1402.20  E(vib)   ...       0.00
freq.    3053.66  E(vib)   ...       0.00
freq.    3109.34  E(vib)   ...       0.00
freq.    3109.41  E(vib)   ...       0.00

------------
INNER ENERGY
------------

The inner energy is: U= E(el) + E(ZPE) + E(vib) + E(rot) + E(trans)
    E(el)   - is the total energy from the electronic structure calculation
              = E(kin-el) + E(nuc-el) + E(el-el) + E(nuc-nuc)
    E(ZPE)  - the the zero temperature vibrational energy from the frequency calculation
    E(vib)  - the the finite temperature correction to E(ZPE) due to population
              of excited vibrational states
    E(rot)  - is the rotational thermal energy
    E(trans)- is the translational thermal energy

Summary of contributions to the inner energy U:
Electronic energy                ...    -39.81359577 Eh
Zero point energy                ...      0.03044289 Eh      19.10 kcal/mol
Thermal vibrational correction   ...      0.00002655 Eh       0.02 kcal/mol
Thermal rotational correction    ...      0.00141627 Eh       0.89 kcal/mol
Thermal translational correction ...      0.00141627 Eh       0.89 kcal/mol
-----------------------------------------------------------------------
Total thermal energy                    -39.78029379 Eh

Summary of corrections to the electronic energy:
(perhaps to be used in another calculation)
Total thermal correction                  0.00285909 Eh       1.79 kcal/mol
Non-thermal (ZPE) correction              0.03044289 Eh      19.10 kcal/mol
-----------------------------------------------------------------------
Total correction                          0.03330198 Eh      20.90 kcal/mol

--------
ENTHALPY
--------

The enthalpy is H = U + kB*T
                kB is Boltzmann's constant
Total free energy                 ...    -39.78029379 Eh
Thermal Enthalpy correction       ...      0.00094421 Eh       0.59 kcal/mol
-----------------------------------------------------------------------
Total Enthalpy                    ...    -39.77934958 Eh

Note: Rotational entropy computed according to Herzberg
Infrared and Raman Spectra, Chapter V,1, Van Nostrand Reinhold, 1945
Point Group:  C3v, Symmetry Number:   3
Rotational constants in cm-1:     8.317801     8.317394     5.765565

Vibrational entropy computed according to the QRRHO of S. Grimme
Chem.Eur.J. 2012 18 9955

-------
ENTROPY
-------

The entropy contributions are T*S = T*(S(el)+S(vib)+S(rot)+S(trans))
     S(el)   - electronic entropy
     S(vib)  - vibrational entropy
     S(rot)  - rotational entropy
     S(trans)- translational entropy
The entropies will be listed as multiplied by the temperature to get
units of energy

Electronic entropy                ...      0.00065446 Eh      0.41 kcal/mol
Vibrational entropy               ...      0.00003063 Eh      0.02 kcal/mol
Rotational entropy                ...      0.00564634 Eh      3.54 kcal/mol
Translational entropy             ...      0.01618771 Eh     10.16 kcal/mol
-----------------------------------------------------------------------
Final entropy term                ...      0.02251913 Eh     14.13 kcal/mol

In case the symmetry of your molecule has not been determined correctly
or in case you have a reason to use a different symmetry number we print
out the resulting rotational entropy values for sn=1,12 :
 --------------------------------------------------------
|  sn= 1 | S(rot)=       0.00668363 Eh      4.19 kcal/mol|
|  sn= 2 | S(rot)=       0.00602917 Eh      3.78 kcal/mol|
|  sn= 3 | S(rot)=       0.00564634 Eh      3.54 kcal/mol|
|  sn= 4 | S(rot)=       0.00537471 Eh      3.37 kcal/mol|
|  sn= 5 | S(rot)=       0.00516402 Eh      3.24 kcal/mol|
|  sn= 6 | S(rot)=       0.00499188 Eh      3.13 kcal/mol|
|  sn= 7 | S(rot)=       0.00484633 Eh      3.04 kcal/mol|
|  sn= 8 | S(rot)=       0.00472026 Eh      2.96 kcal/mol|
|  sn= 9 | S(rot)=       0.00460905 Eh      2.89 kcal/mol|
|  sn=10 | S(rot)=       0.00450957 Eh      2.83 kcal/mol|
|  sn=11 | S(rot)=       0.00441958 Eh      2.77 kcal/mol|
|  sn=12 | S(rot)=       0.00433742 Eh      2.72 kcal/mol|
 --------------------------------------------------------

-------------------
GIBBS FREE ENERGY
-------------------

The Gibbs free energy is G = H - T*S

Total enthalpy                    ...    -39.77934958 Eh
Total entropy correction          ...     -0.02251913 Eh    -14.13 kcal/mol
-----------------------------------------------------------------------
Final Gibbs free energy         ...    -39.80186871 Eh

For completeness - the Gibbs free energy minus the electronic energy
G-E(el)                           ...      0.01172706 Eh      7.36 kcal/mol

                             ****ORCA TERMINATED NORMALLY****
TOTAL RUN TIME: 0 days 0 hours 1 minutes 44 seconds 53 msec
