                         Program Version 5.0.4 -  RELEASE  -
|  1> ! UKS TightSCF wB97x-D3 def2-TZVPD xyzfile opt freq
|  2>
|  3> # CH3 radical 113.5 degrees fixed
|  4>
|  5> %maxcore 1000
|  6> %pal
|  7> nprocs 18
|  8> end
|  9>
| 10> %geom Constraints
| 11>         { A * 0 * C }
| 12>     end
| 13> end
| 14> * xyz 0 2
| 15> C 0.00 0.00 0.00
| 16> H 1.0429128803 0.0000000000 -0.2805935210
| 17> H -0.5214564402 0.9031890483 -0.2805935210
| 18> H -0.5214564402 -0.9031890483 -0.2805935210
| 19> **                         ****END OF INPUT****
 Total Charge           Charge          ....    0
 Multiplicity           Mult            ....    2
 Number of Electrons    NEL             ....    9
Dispersion correction           -0.000013991
FINAL SINGLE POINT ENERGY       -39.833940368446
Dispersion correction            ... done
Dispersion correction           -0.000014583
FINAL SINGLE POINT ENERGY       -39.834004241551
Dispersion correction            ... done
                    ***********************HURRAY********************

CARTESIAN COORDINATES (ANGSTROEM)
---------------------------------
  C     -0.000006   -0.000000    0.001113
  H      1.048438   -0.000000   -0.280966
  H     -0.524216    0.907961   -0.280964
  H     -0.524216   -0.907961   -0.280964

 Multiplicity           Mult            ....    2
 Number of Electrons    NEL             ....    9
 Basis Dimension        Dim             ....   64

ORBITAL ENERGIES
----------------
                 SPIN UP ORBITALS
  NO   OCC          E(Eh)            E(eV)
   0   1.0000     -10.290430      -280.0168
   1   1.0000      -0.805594       -21.9213
   2   1.0000      -0.512389       -13.9428
   3   1.0000      -0.512362       -13.9421
   4   1.0000      -0.346873        -9.4389
   5   0.0000       0.076074         2.0701
   6   0.0000       0.161143         4.3849
   7   0.0000       0.161154         4.3852
   8   0.0000       0.198783         5.4092
   9   0.0000       0.198793         5.4094

                 SPIN DOWN ORBITALS
  NO   OCC          E(Eh)            E(eV)
   0   1.0000     -10.279867      -279.7294
   1   1.0000      -0.763658       -20.7802
   2   1.0000      -0.498854       -13.5745
   3   1.0000      -0.498798       -13.5730
   4   0.0000      -0.003357        -0.0914
   5   0.0000       0.085708         2.3322
   6   0.0000       0.165588         4.5059
   7   0.0000       0.165601         4.5062
   8   0.0000       0.200764         5.4631

MULLIKEN ATOMIC CHARGES AND SPIN POPULATIONS
--------------------------------------------
   0 C :   -0.714506    0.894639
   1 H :    0.237991    0.035091
   2 H :    0.238257    0.035135
   3 H :    0.238257    0.035135
Sum of atomic charges         :    0.0000000

LOEWDIN ATOMIC CHARGES AND SPIN POPULATIONS
-------------------------------------------
   0 C :    0.055024    0.835598
   1 H :   -0.018339    0.054817
   2 H :   -0.018342    0.054793
   3 H :   -0.018342    0.054793

  Mayer bond orders larger than 0.100000
B(  0-C ,  1-H ) :   0.9743 B(  0-C ,  2-H ) :   0.9740 B(  0-C ,  3-H ) :   0.9740

Dispersion correction           -0.000014594
FINAL SINGLE POINT ENERGY       -39.834004265466

DIPOLE MOMENT
-------------
                                X             Y             Z
Electronic contribution:      0.00017       0.00000       0.42644
Nuclear contribution   :      0.00002       0.00000      -0.63424
                        -----------------------------------------
Total Dipole Moment    :      0.00019       0.00000      -0.20779
                        -----------------------------------------
Magnitude (a.u.)       :      0.20779
Magnitude (Debye)      :      0.52817

Dispersion correction in the Hessian             ... done   (      0.1 sec)

VIBRATIONAL FREQUENCIES
-----------------------

Scaling factor for frequencies =  1.000000000  (already applied!)

   0:         0.00 cm**-1
   1:         0.00 cm**-1
   2:         0.00 cm**-1
   3:         0.00 cm**-1
   4:         0.00 cm**-1
   5:         0.00 cm**-1
   6:      1011.87 cm**-1
   7:      1419.65 cm**-1
   8:      1425.50 cm**-1
   9:      3096.17 cm**-1
  10:      3235.68 cm**-1
  11:      3236.10 cm**-1

IR SPECTRUM
-----------

 Mode   freq       eps      Int      T**2         TX        TY        TZ
       cm**-1   L/(mol*cm) km/mol    a.u.
----------------------------------------------------------------------------
  6:   1011.87   0.006480   32.75  0.001998  (-0.000091  0.000000  0.044703)
  7:   1419.65   0.000588    2.97  0.000129  (-0.011371  0.000000  0.000161)
  8:   1425.50   0.000583    2.95  0.000128  ( 0.000000  0.011299 -0.000000)
  9:   3096.17   0.000011    0.06  0.000001  ( 0.000051 -0.000000 -0.001070)
 10:   3235.68   0.002777   14.04  0.000268  (-0.016367 -0.000000  0.000002)
 11:   3236.10   0.002790   14.10  0.000269  ( 0.000000 -0.016402  0.000000)

--------------------------
THERMOCHEMISTRY AT 298.15K
--------------------------

Temperature         ... 298.15 K
Pressure            ... 1.00 atm
Total Mass          ... 15.03 AMU

Throughout the following assumptions are being made:
  (1) The electronic state is orbitally nondegenerate
      but the spin degeneracy is treated
  (2) There are no thermally accessible electronically excited states
  (3) Hindered rotations indicated by low frequency modes are not
      treated as such but are treated as vibrations and this may
      cause some error
  (4) All equations used are the standard statistical mechanics
      equations for an ideal gas
  (5) All vibrations are strictly harmonic

freq.    1011.87  E(vib)   ...       0.02
freq.    1419.65  E(vib)   ...       0.00
freq.    1425.50  E(vib)   ...       0.00
freq.    3096.17  E(vib)   ...       0.00
freq.    3235.68  E(vib)   ...       0.00
freq.    3236.10  E(vib)   ...       0.00

------------
INNER ENERGY
------------

The inner energy is: U= E(el) + E(ZPE) + E(vib) + E(rot) + E(trans)
    E(el)   - is the total energy from the electronic structure calculation
              = E(kin-el) + E(nuc-el) + E(el-el) + E(nuc-nuc)
    E(ZPE)  - the the zero temperature vibrational energy from the frequency calculation
    E(vib)  - the the finite temperature correction to E(ZPE) due to population
              of excited vibrational states
    E(rot)  - is the rotational thermal energy
    E(trans)- is the translational thermal energy

Summary of contributions to the inner energy U:
Electronic energy                ...    -39.83400427 Eh
Zero point energy                ...      0.03058435 Eh      19.19 kcal/mol
Thermal vibrational correction   ...      0.00004875 Eh       0.03 kcal/mol
Thermal rotational correction    ...      0.00141627 Eh       0.89 kcal/mol
Thermal translational correction ...      0.00141627 Eh       0.89 kcal/mol
-----------------------------------------------------------------------
Total thermal energy                    -39.80053863 Eh

Summary of corrections to the electronic energy:
(perhaps to be used in another calculation)
Total thermal correction                  0.00288129 Eh       1.81 kcal/mol
Non-thermal (ZPE) correction              0.03058435 Eh      19.19 kcal/mol
-----------------------------------------------------------------------
Total correction                          0.03346564 Eh      21.00 kcal/mol

--------
ENTHALPY
--------

The enthalpy is H = U + kB*T
                kB is Boltzmann's constant
Total free energy                 ...    -39.80053863 Eh
Thermal Enthalpy correction       ...      0.00094421 Eh       0.59 kcal/mol
-----------------------------------------------------------------------
Total Enthalpy                    ...    -39.79959442 Eh

Note: Rotational entropy computed according to Herzberg
Infrared and Raman Spectra, Chapter V,1, Van Nostrand Reinhold, 1945
Point Group:  C3v, Symmetry Number:   3
Rotational constants in cm-1:     9.091629     9.091417     5.071502

Vibrational entropy computed according to the QRRHO of S. Grimme
Chem.Eur.J. 2012 18 9955

-------
ENTROPY
-------

The entropy contributions are T*S = T*(S(el)+S(vib)+S(rot)+S(trans))
     S(el)   - electronic entropy
     S(vib)  - vibrational entropy
     S(rot)  - rotational entropy
     S(trans)- translational entropy
The entropies will be listed as multiplied by the temperature to get
units of energy

Electronic entropy                ...      0.00065446 Eh      0.41 kcal/mol
Vibrational entropy               ...      0.00005793 Eh      0.04 kcal/mol
Rotational entropy                ...      0.00562289 Eh      3.53 kcal/mol
Translational entropy             ...      0.01618771 Eh     10.16 kcal/mol
-----------------------------------------------------------------------
Final entropy term                ...      0.02252298 Eh     14.13 kcal/mol

In case the symmetry of your molecule has not been determined correctly
or in case you have a reason to use a different symmetry number we print
out the resulting rotational entropy values for sn=1,12 :
 --------------------------------------------------------
|  sn= 1 | S(rot)=       0.00666018 Eh      4.18 kcal/mol|
|  sn= 2 | S(rot)=       0.00600572 Eh      3.77 kcal/mol|
|  sn= 3 | S(rot)=       0.00562289 Eh      3.53 kcal/mol|
|  sn= 4 | S(rot)=       0.00535126 Eh      3.36 kcal/mol|
|  sn= 5 | S(rot)=       0.00514058 Eh      3.23 kcal/mol|
|  sn= 6 | S(rot)=       0.00496843 Eh      3.12 kcal/mol|
|  sn= 7 | S(rot)=       0.00482288 Eh      3.03 kcal/mol|
|  sn= 8 | S(rot)=       0.00469681 Eh      2.95 kcal/mol|
|  sn= 9 | S(rot)=       0.00458560 Eh      2.88 kcal/mol|
|  sn=10 | S(rot)=       0.00448612 Eh      2.82 kcal/mol|
|  sn=11 | S(rot)=       0.00439613 Eh      2.76 kcal/mol|
|  sn=12 | S(rot)=       0.00431397 Eh      2.71 kcal/mol|
 --------------------------------------------------------

-------------------
GIBBS FREE ENERGY
-------------------

The Gibbs free energy is G = H - T*S

Total enthalpy                    ...    -39.79959442 Eh
Total entropy correction          ...     -0.02252298 Eh    -14.13 kcal/mol
-----------------------------------------------------------------------
Final Gibbs free energy         ...    -39.82211739 Eh

For completeness - the Gibbs free energy minus the electronic energy
G-E(el)                           ...      0.01188687 Eh      7.46 kcal/mol

                             ****ORCA TERMINATED NORMALLY****
TOTAL RUN TIME: 0 days 0 hours 0 minutes 55 seconds 101 msec
