                         Program Version 5.0.4 -  RELEASE  -
|  1> ! UKS TightSCF wB97x-D3 def2-TZVPD xyzfile opt freq
|  2>
|  3> # CH3 radical 106.5 degrees fixed
|  4>
|  5> %maxcore 1000
|  6> %pal
|  7> nprocs 18
|  8> end
|  9>
| 10> %geom Constraints
| 11>         { A * 0 * C }
| 12>     end
| 13> end
| 14> * xyz 0 2
| 15> C 0.00 0.00 0.00
| 16> H 0.9992248656 0.0000000000 -0.4098166272
| 17> H -0.4996124328 0.8653541177 -0.4098166272
| 18> H -0.4996124328 -0.8653541177 -0.4098166272
| 19> **                         ****END OF INPUT****
 Total Charge           Charge          ....    0
 Multiplicity           Mult            ....    2
 Number of Electrons    NEL             ....    9
Dispersion correction           -0.000009988
FINAL SINGLE POINT ENERGY       -39.822907967758
Dispersion correction            ... done
Dispersion correction           -0.000010867
FINAL SINGLE POINT ENERGY       -39.823176403583
Dispersion correction            ... done
                    ***********************HURRAY********************

CARTESIAN COORDINATES (ANGSTROEM)
---------------------------------
  C      0.000015    0.000000    0.003371
  H      1.010161    0.000000   -0.410936
  H     -0.505088    0.874858   -0.410942
  H     -0.505088   -0.874858   -0.410942

 Multiplicity           Mult            ....    2
 Number of Electrons    NEL             ....    9
 Basis Dimension        Dim             ....   64

ORBITAL ENERGIES
----------------
                 SPIN UP ORBITALS
  NO   OCC          E(Eh)            E(eV)
   0   1.0000     -10.295723      -280.1609
   1   1.0000      -0.809973       -22.0405
   2   1.0000      -0.501883       -13.6569
   3   1.0000      -0.501846       -13.6559
   4   1.0000      -0.368006       -10.0140
   5   0.0000       0.075490         2.0542
   6   0.0000       0.160850         4.3770
   7   0.0000       0.160857         4.3771
   8   0.0000       0.189865         5.1665
   9   0.0000       0.195203         5.3117

                 SPIN DOWN ORBITALS
  NO   OCC          E(Eh)            E(eV)
   0   1.0000     -10.284603      -279.8583
   1   1.0000      -0.771331       -20.9890
   2   1.0000      -0.487304       -13.2602
   3   1.0000      -0.487264       -13.2591
   4   0.0000      -0.019264        -0.5242
   5   0.0000       0.084352         2.2953
   6   0.0000       0.165845         4.5129
   7   0.0000       0.165846         4.5129
   8   0.0000       0.199595         5.4313

MULLIKEN ATOMIC CHARGES AND SPIN POPULATIONS
--------------------------------------------
   0 C :   -0.687318    0.885917
   1 H :    0.228809    0.037977
   2 H :    0.229254    0.038054
   3 H :    0.229255    0.038053
Sum of atomic charges         :   -0.0000000

LOEWDIN ATOMIC CHARGES AND SPIN POPULATIONS
-------------------------------------------
   0 C :    0.048473    0.837269
   1 H :   -0.016206    0.054251
   2 H :   -0.016134    0.054240
   3 H :   -0.016133    0.054240

  Mayer bond orders larger than 0.100000
B(  0-C ,  1-H ) :   0.9980 B(  0-C ,  2-H ) :   0.9975 B(  0-C ,  3-H ) :   0.9975

Dispersion correction           -0.000010900
FINAL SINGLE POINT ENERGY       -39.823176738052

DIPOLE MOMENT
-------------
                                X             Y             Z
Electronic contribution:      0.00008      -0.00000       0.66259
Nuclear contribution   :     -0.00005      -0.00000      -0.93155
                        -----------------------------------------
Total Dipole Moment    :      0.00003      -0.00000      -0.26896
                        -----------------------------------------
Magnitude (a.u.)       :      0.26896
Magnitude (Debye)      :      0.68365

Dispersion correction in the Hessian             ... done   (      0.1 sec)

VIBRATIONAL FREQUENCIES
-----------------------

Scaling factor for frequencies =  1.000000000  (already applied!)

   0:         0.00 cm**-1
   1:         0.00 cm**-1
   2:         0.00 cm**-1
   3:         0.00 cm**-1
   4:         0.00 cm**-1
   5:         0.00 cm**-1
   6:      1204.97 cm**-1
   7:      1409.93 cm**-1
   8:      1412.57 cm**-1
   9:      3068.37 cm**-1
  10:      3158.22 cm**-1
  11:      3158.36 cm**-1

IR SPECTRUM
-----------

 Mode   freq       eps      Int      T**2         TX        TY        TZ
       cm**-1   L/(mol*cm) km/mol    a.u.
----------------------------------------------------------------------------
  6:   1204.97   0.002832   14.31  0.000733  ( 0.000052 -0.000000  0.027083)
  7:   1409.93   0.000707    3.58  0.000157  ( 0.000000 -0.012514 -0.000000)
  8:   1412.57   0.000693    3.50  0.000153  (-0.012369 -0.000000 -0.000265)
  9:   3068.37   0.000017    0.09  0.000002  ( 0.000059  0.000000  0.001318)
 10:   3158.22   0.005183   26.19  0.000512  ( 0.000041  0.022631  0.000000)
 11:   3158.36   0.005065   25.60  0.000500  ( 0.022371 -0.000042 -0.000009)

--------------------------
THERMOCHEMISTRY AT 298.15K
--------------------------

Temperature         ... 298.15 K
Pressure            ... 1.00 atm
Total Mass          ... 15.03 AMU

Throughout the following assumptions are being made:
  (1) The electronic state is orbitally nondegenerate
      but the spin degeneracy is treated
  (2) There are no thermally accessible electronically excited states
  (3) Hindered rotations indicated by low frequency modes are not
      treated as such but are treated as vibrations and this may
      cause some error
  (4) All equations used are the standard statistical mechanics
      equations for an ideal gas
  (5) All vibrations are strictly harmonic

freq.    1204.97  E(vib)   ...       0.01
freq.    1409.93  E(vib)   ...       0.00
freq.    1412.57  E(vib)   ...       0.00
freq.    3068.37  E(vib)   ...       0.00
freq.    3158.22  E(vib)   ...       0.00
freq.    3158.36  E(vib)   ...       0.00

------------
INNER ENERGY
------------

The inner energy is: U= E(el) + E(ZPE) + E(vib) + E(rot) + E(trans)
    E(el)   - is the total energy from the electronic structure calculation
              = E(kin-el) + E(nuc-el) + E(el-el) + E(nuc-nuc)
    E(ZPE)  - the the zero temperature vibrational energy from the frequency calculation
    E(vib)  - the the finite temperature correction to E(ZPE) due to population
              of excited vibrational states
    E(rot)  - is the rotational thermal energy
    E(trans)- is the translational thermal energy

Summary of contributions to the inner energy U:
Electronic energy                ...    -39.82317674 Eh
Zero point energy                ...      0.03055573 Eh      19.17 kcal/mol
Thermal vibrational correction   ...      0.00003064 Eh       0.02 kcal/mol
Thermal rotational correction    ...      0.00141627 Eh       0.89 kcal/mol
Thermal translational correction ...      0.00141627 Eh       0.89 kcal/mol
-----------------------------------------------------------------------
Total thermal energy                    -39.78975782 Eh

Summary of corrections to the electronic energy:
(perhaps to be used in another calculation)
Total thermal correction                  0.00286318 Eh       1.80 kcal/mol
Non-thermal (ZPE) correction              0.03055573 Eh      19.17 kcal/mol
-----------------------------------------------------------------------
Total correction                          0.03341891 Eh      20.97 kcal/mol

--------
ENTHALPY
--------

The enthalpy is H = U + kB*T
                kB is Boltzmann's constant
Total free energy                 ...    -39.78975782 Eh
Thermal Enthalpy correction       ...      0.00094421 Eh       0.59 kcal/mol
-----------------------------------------------------------------------
Total Enthalpy                    ...    -39.78881361 Eh

Note: Rotational entropy computed according to Herzberg
Infrared and Raman Spectra, Chapter V,1, Van Nostrand Reinhold, 1945
Point Group:  C3v, Symmetry Number:   3
Rotational constants in cm-1:     8.611495     8.611045     5.462801

Vibrational entropy computed according to the QRRHO of S. Grimme
Chem.Eur.J. 2012 18 9955

-------
ENTROPY
-------

The entropy contributions are T*S = T*(S(el)+S(vib)+S(rot)+S(trans))
     S(el)   - electronic entropy
     S(vib)  - vibrational entropy
     S(rot)  - rotational entropy
     S(trans)- translational entropy
The entropies will be listed as multiplied by the temperature to get
units of energy

Electronic entropy                ...      0.00065446 Eh      0.41 kcal/mol
Vibrational entropy               ...      0.00003555 Eh      0.02 kcal/mol
Rotational entropy                ...      0.00563904 Eh      3.54 kcal/mol
Translational entropy             ...      0.01618771 Eh     10.16 kcal/mol
-----------------------------------------------------------------------
Final entropy term                ...      0.02251676 Eh     14.13 kcal/mol

In case the symmetry of your molecule has not been determined correctly
or in case you have a reason to use a different symmetry number we print
out the resulting rotational entropy values for sn=1,12 :
 --------------------------------------------------------
|  sn= 1 | S(rot)=       0.00667633 Eh      4.19 kcal/mol|
|  sn= 2 | S(rot)=       0.00602187 Eh      3.78 kcal/mol|
|  sn= 3 | S(rot)=       0.00563904 Eh      3.54 kcal/mol|
|  sn= 4 | S(rot)=       0.00536742 Eh      3.37 kcal/mol|
|  sn= 5 | S(rot)=       0.00515673 Eh      3.24 kcal/mol|
|  sn= 6 | S(rot)=       0.00498458 Eh      3.13 kcal/mol|
|  sn= 7 | S(rot)=       0.00483904 Eh      3.04 kcal/mol|
|  sn= 8 | S(rot)=       0.00471296 Eh      2.96 kcal/mol|
|  sn= 9 | S(rot)=       0.00460175 Eh      2.89 kcal/mol|
|  sn=10 | S(rot)=       0.00450227 Eh      2.83 kcal/mol|
|  sn=11 | S(rot)=       0.00441228 Eh      2.77 kcal/mol|
|  sn=12 | S(rot)=       0.00433013 Eh      2.72 kcal/mol|
 --------------------------------------------------------

-------------------
GIBBS FREE ENERGY
-------------------

The Gibbs free energy is G = H - T*S

Total enthalpy                    ...    -39.78881361 Eh
Total entropy correction          ...     -0.02251676 Eh    -14.13 kcal/mol
-----------------------------------------------------------------------
Final Gibbs free energy         ...    -39.81133037 Eh

For completeness - the Gibbs free energy minus the electronic energy
G-E(el)                           ...      0.01184637 Eh      7.43 kcal/mol

                             ****ORCA TERMINATED NORMALLY****
TOTAL RUN TIME: 0 days 0 hours 0 minutes 56 seconds 919 msec
