                         Program Version 5.0.4 -  RELEASE  -
|  1> ! UKS TightSCF wB97x-D3 def2-TZVPD xyzfile opt freq
|  2>
|  3> # CH3 radical 108.0 degrees fixed
|  4>
|  5> %maxcore 1000
|  6> %pal
|  7> nprocs 18
|  8> end
|  9>
| 10> %geom Constraints
| 11>         { A * 0 * C }
| 12>     end
| 13> end
| 14> * xyz 0 2
| 15> C 0.00 0.00 0.00
| 16> H 1.0089061477 0.0000000000 -0.3853678570
| 17> H -0.5044530738 0.8737383539 -0.3853678570
| 18> H -0.5044530738 -0.8737383539 -0.3853678570
| 19> **                         ****END OF INPUT****
 Total Charge           Charge          ....    0
 Multiplicity           Mult            ....    2
 Number of Electrons    NEL             ....    9
Dispersion correction           -0.000010775
FINAL SINGLE POINT ENERGY       -39.825701295559
Dispersion correction            ... done
Dispersion correction           -0.000011619
FINAL SINGLE POINT ENERGY       -39.825915272893
Dispersion correction            ... done
                    ***********************HURRAY********************

CARTESIAN COORDINATES (ANGSTROEM)
---------------------------------
  C      0.000010    0.000000    0.002824
  H      1.018747    0.000000   -0.386306
  H     -0.509379    0.882284   -0.386310
  H     -0.509379   -0.882284   -0.386310

 Multiplicity           Mult            ....    2
 Number of Electrons    NEL             ....    9
 Basis Dimension        Dim             ....   64

ORBITAL ENERGIES
----------------
                 SPIN UP ORBITALS
  NO   OCC          E(Eh)            E(eV)
   0   1.0000     -10.294590      -280.1300
   1   1.0000      -0.808947       -22.0126
   2   1.0000      -0.504205       -13.7201
   3   1.0000      -0.504174       -13.7193
   4   1.0000      -0.363537        -9.8923
   5   0.0000       0.075646         2.0584
   6   0.0000       0.160930         4.3791
   7   0.0000       0.160938         4.3794
   8   0.0000       0.193081         5.2540
   9   0.0000       0.195761         5.3269

                 SPIN DOWN ORBITALS
  NO   OCC          E(Eh)            E(eV)
   0   1.0000     -10.283590      -279.8307
   1   1.0000      -0.769642       -20.9430
   2   1.0000      -0.489849       -13.3295
   3   1.0000      -0.489794       -13.3280
   4   0.0000      -0.015798        -0.4299
   5   0.0000       0.084675         2.3041
   6   0.0000       0.165823         4.5123
   7   0.0000       0.165829         4.5124
   8   0.0000       0.199665         5.4332

MULLIKEN ATOMIC CHARGES AND SPIN POPULATIONS
--------------------------------------------
   0 C :   -0.692789    0.885976
   1 H :    0.230654    0.037962
   2 H :    0.231067    0.038031
   3 H :    0.231068    0.038031
Sum of atomic charges         :    0.0000000

LOEWDIN ATOMIC CHARGES AND SPIN POPULATIONS
-------------------------------------------
   0 C :    0.049875    0.836775
   1 H :   -0.016663    0.054418
   2 H :   -0.016606    0.054403
   3 H :   -0.016606    0.054403

  Mayer bond orders larger than 0.100000
B(  0-C ,  1-H ) :   0.9935 B(  0-C ,  2-H ) :   0.9930 B(  0-C ,  3-H ) :   0.9930

Dispersion correction           -0.000011647
FINAL SINGLE POINT ENERGY       -39.825915491106

DIPOLE MOMENT
-------------
                                X             Y             Z
Electronic contribution:      0.00012       0.00000       0.61588
Nuclear contribution   :     -0.00003      -0.00000      -0.87494
                        -----------------------------------------
Total Dipole Moment    :      0.00009      -0.00000      -0.25906
                        -----------------------------------------
Magnitude (a.u.)       :      0.25906
Magnitude (Debye)      :      0.65849

Dispersion correction in the Hessian             ... done   (      0.1 sec)

VIBRATIONAL FREQUENCIES
-----------------------

Scaling factor for frequencies =  1.000000000  (already applied!)

   0:         0.00 cm**-1
   1:         0.00 cm**-1
   2:         0.00 cm**-1
   3:         0.00 cm**-1
   4:         0.00 cm**-1
   5:         0.00 cm**-1
   6:      1173.06 cm**-1
   7:      1413.72 cm**-1
   8:      1415.63 cm**-1
   9:      3073.61 cm**-1
  10:      3174.52 cm**-1
  11:      3174.66 cm**-1

IR SPECTRUM
-----------

 Mode   freq       eps      Int      T**2         TX        TY        TZ
       cm**-1   L/(mol*cm) km/mol    a.u.
----------------------------------------------------------------------------
  6:   1173.06   0.003331   16.83  0.000886  (-0.000017 -0.000000  0.029767)
  7:   1413.72   0.000670    3.39  0.000148  ( 0.000000 -0.012164 -0.000000)
  8:   1415.63   0.000657    3.32  0.000145  ( 0.012027  0.000000  0.000392)
  9:   3073.61   0.000017    0.08  0.000002  (-0.000055 -0.000000 -0.001300)
 10:   3174.52   0.004666   23.58  0.000459  (-0.000029 -0.021418  0.000000)
 11:   3174.66   0.004571   23.10  0.000449  (-0.021197  0.000029  0.000022)

--------------------------
THERMOCHEMISTRY AT 298.15K
--------------------------

Temperature         ... 298.15 K
Pressure            ... 1.00 atm
Total Mass          ... 15.03 AMU

Throughout the following assumptions are being made:
  (1) The electronic state is orbitally nondegenerate
      but the spin degeneracy is treated
  (2) There are no thermally accessible electronically excited states
  (3) Hindered rotations indicated by low frequency modes are not
      treated as such but are treated as vibrations and this may
      cause some error
  (4) All equations used are the standard statistical mechanics
      equations for an ideal gas
  (5) All vibrations are strictly harmonic

freq.    1173.06  E(vib)   ...       0.01
freq.    1413.72  E(vib)   ...       0.00
freq.    1415.63  E(vib)   ...       0.00
freq.    3073.61  E(vib)   ...       0.00
freq.    3174.52  E(vib)   ...       0.00
freq.    3174.66  E(vib)   ...       0.00

------------
INNER ENERGY
------------

The inner energy is: U= E(el) + E(ZPE) + E(vib) + E(rot) + E(trans)
    E(el)   - is the total energy from the electronic structure calculation
              = E(kin-el) + E(nuc-el) + E(el-el) + E(nuc-nuc)
    E(ZPE)  - the the zero temperature vibrational energy from the frequency calculation
    E(vib)  - the the finite temperature correction to E(ZPE) due to population
              of excited vibrational states
    E(rot)  - is the rotational thermal energy
    E(trans)- is the translational thermal energy

Summary of contributions to the inner energy U:
Electronic energy                ...    -39.82591549 Eh
Zero point energy                ...      0.03058487 Eh      19.19 kcal/mol
Thermal vibrational correction   ...      0.00003267 Eh       0.02 kcal/mol
Thermal rotational correction    ...      0.00141627 Eh       0.89 kcal/mol
Thermal translational correction ...      0.00141627 Eh       0.89 kcal/mol
-----------------------------------------------------------------------
Total thermal energy                    -39.79246541 Eh

Summary of corrections to the electronic energy:
(perhaps to be used in another calculation)
Total thermal correction                  0.00286522 Eh       1.80 kcal/mol
Non-thermal (ZPE) correction              0.03058487 Eh      19.19 kcal/mol
-----------------------------------------------------------------------
Total correction                          0.03345008 Eh      20.99 kcal/mol

--------
ENTHALPY
--------

The enthalpy is H = U + kB*T
                kB is Boltzmann's constant
Total free energy                 ...    -39.79246541 Eh
Thermal Enthalpy correction       ...      0.00094421 Eh       0.59 kcal/mol
-----------------------------------------------------------------------
Total Enthalpy                    ...    -39.79152120 Eh

Note: Rotational entropy computed according to Herzberg
Infrared and Raman Spectra, Chapter V,1, Van Nostrand Reinhold, 1945
Point Group:  C3v, Symmetry Number:   3
Rotational constants in cm-1:     8.711771     8.711451     5.371174

Vibrational entropy computed according to the QRRHO of S. Grimme
Chem.Eur.J. 2012 18 9955

-------
ENTROPY
-------

The entropy contributions are T*S = T*(S(el)+S(vib)+S(rot)+S(trans))
     S(el)   - electronic entropy
     S(vib)  - vibrational entropy
     S(rot)  - rotational entropy
     S(trans)- translational entropy
The entropies will be listed as multiplied by the temperature to get
units of energy

Electronic entropy                ...      0.00065446 Eh      0.41 kcal/mol
Vibrational entropy               ...      0.00003803 Eh      0.02 kcal/mol
Rotational entropy                ...      0.00563609 Eh      3.54 kcal/mol
Translational entropy             ...      0.01618771 Eh     10.16 kcal/mol
-----------------------------------------------------------------------
Final entropy term                ...      0.02251628 Eh     14.13 kcal/mol

In case the symmetry of your molecule has not been determined correctly
or in case you have a reason to use a different symmetry number we print
out the resulting rotational entropy values for sn=1,12 :
 --------------------------------------------------------
|  sn= 1 | S(rot)=       0.00667338 Eh      4.19 kcal/mol|
|  sn= 2 | S(rot)=       0.00601892 Eh      3.78 kcal/mol|
|  sn= 3 | S(rot)=       0.00563609 Eh      3.54 kcal/mol|
|  sn= 4 | S(rot)=       0.00536446 Eh      3.37 kcal/mol|
|  sn= 5 | S(rot)=       0.00515378 Eh      3.23 kcal/mol|
|  sn= 6 | S(rot)=       0.00498163 Eh      3.13 kcal/mol|
|  sn= 7 | S(rot)=       0.00483609 Eh      3.03 kcal/mol|
|  sn= 8 | S(rot)=       0.00471001 Eh      2.96 kcal/mol|
|  sn= 9 | S(rot)=       0.00459880 Eh      2.89 kcal/mol|
|  sn=10 | S(rot)=       0.00449932 Eh      2.82 kcal/mol|
|  sn=11 | S(rot)=       0.00440933 Eh      2.77 kcal/mol|
|  sn=12 | S(rot)=       0.00432717 Eh      2.72 kcal/mol|
 --------------------------------------------------------

-------------------
GIBBS FREE ENERGY
-------------------

The Gibbs free energy is G = H - T*S

Total enthalpy                    ...    -39.79152120 Eh
Total entropy correction          ...     -0.02251628 Eh    -14.13 kcal/mol
-----------------------------------------------------------------------
Final Gibbs free energy         ...    -39.81403748 Eh

For completeness - the Gibbs free energy minus the electronic energy
G-E(el)                           ...      0.01187802 Eh      7.45 kcal/mol

                             ****ORCA TERMINATED NORMALLY****
TOTAL RUN TIME: 0 days 0 hours 1 minutes 27 seconds 11 msec
