                         Program Version 5.0.4 -  RELEASE  -
|  1> ! UKS TightSCF wB97x-D3 def2-TZVPD xyzfile opt freq
|  2>
|  3> # CH3 radical 104.5 degrees fixed
|  4>
|  5> %maxcore 1000
|  6> %pal
|  7> nprocs 18
|  8> end
|  9>
| 10> %geom Constraints
| 11>         { A * 0 * C }
| 12>     end
| 13> end
| 14> * xyz 0 2
| 15> C 0.00 0.00 0.00
| 16> H 0.9860504506 0.0000000000 -0.4405729325
| 17> H -0.4930252253 0.8539447396 -0.4405729325
| 18> H -0.4930252253 -0.8539447396 -0.4405729325
| 19> **                         ****END OF INPUT****
 Total Charge           Charge          ....    0
 Multiplicity           Mult            ....    2
 Number of Electrons    NEL             ....    9
Dispersion correction           -0.000008999
FINAL SINGLE POINT ENERGY       -39.818820820690
Dispersion correction            ... done
Dispersion correction           -0.000009907
FINAL SINGLE POINT ENERGY       -39.819171066385
Dispersion correction            ... done
                    ***********************HURRAY********************

CARTESIAN COORDINATES (ANGSTROEM)
---------------------------------
  C      0.000019    0.000000    0.004150
  H      0.998409    0.000000   -0.441951
  H     -0.499214    0.864687   -0.441959
  H     -0.499214   -0.864688   -0.441959

 Multiplicity           Mult            ....    2
 Number of Electrons    NEL             ....    9
 Basis Dimension        Dim             ....   64

ORBITAL ENERGIES
----------------
                 SPIN UP ORBITALS
  NO   OCC          E(Eh)            E(eV)
   0   1.0000     -10.297242      -280.2022
   1   1.0000      -0.811425       -22.0800
   2   1.0000      -0.498729       -13.5711
   3   1.0000      -0.498685       -13.5699
   4   1.0000      -0.373912       -10.1747
   5   0.0000       0.075248         2.0476
   6   0.0000       0.160726         4.3736
   7   0.0000       0.160732         4.3737
   8   0.0000       0.185506         5.0479
   9   0.0000       0.194583         5.2949

                 SPIN DOWN ORBITALS
  NO   OCC          E(Eh)            E(eV)
   0   1.0000     -10.285962      -279.8953
   1   1.0000      -0.773636       -21.0517
   2   1.0000      -0.483862       -13.1666
   3   1.0000      -0.483842       -13.1660
   4   0.0000      -0.023913        -0.6507
   5   0.0000       0.083894         2.2829
   6   0.0000       0.165848         4.5130
   7   0.0000       0.165853         4.5131
   8   0.0000       0.199589         5.4311

MULLIKEN ATOMIC CHARGES AND SPIN POPULATIONS
--------------------------------------------
   0 C :   -0.680483    0.887091
   1 H :    0.226506    0.037577
   2 H :    0.226988    0.037666
   3 H :    0.226988    0.037666
Sum of atomic charges         :    0.0000000

LOEWDIN ATOMIC CHARGES AND SPIN POPULATIONS
-------------------------------------------
   0 C :    0.046617    0.838019
   1 H :   -0.015595    0.053999
   2 H :   -0.015511    0.053991
   3 H :   -0.015511    0.053991

  Mayer bond orders larger than 0.100000
B(  0-C ,  1-H ) :   1.0037 B(  0-C ,  2-H ) :   1.0031 B(  0-C ,  3-H ) :   1.0031

Dispersion correction           -0.000009945
FINAL SINGLE POINT ENERGY       -39.819171621461

DIPOLE MOMENT
-------------
                                X             Y             Z
Electronic contribution:      0.00003      -0.00000       0.72252
Nuclear contribution   :     -0.00006      -0.00000      -1.00304
                        -----------------------------------------
Total Dipole Moment    :     -0.00002      -0.00000      -0.28052
                        -----------------------------------------
Magnitude (a.u.)       :      0.28052
Magnitude (Debye)      :      0.71303

Dispersion correction in the Hessian             ... done   (      0.1 sec)

VIBRATIONAL FREQUENCIES
-----------------------

Scaling factor for frequencies =  1.000000000  (already applied!)

   0:         0.00 cm**-1
   1:         0.00 cm**-1
   2:         0.00 cm**-1
   3:         0.00 cm**-1
   4:         0.00 cm**-1
   5:         0.00 cm**-1
   6:      1244.29 cm**-1
   7:      1405.36 cm**-1
   8:      1408.25 cm**-1
   9:      3061.76 cm**-1
  10:      3136.63 cm**-1
  11:      3136.71 cm**-1

IR SPECTRUM
-----------

 Mode   freq       eps      Int      T**2         TX        TY        TZ
       cm**-1   L/(mol*cm) km/mol    a.u.
----------------------------------------------------------------------------
  6:   1244.29   0.002324   11.74  0.000583  ( 0.000132 -0.000000  0.024140)
  7:   1405.36   0.000765    3.87  0.000170  ( 0.000000 -0.013034 -0.000000)
  8:   1408.25   0.000755    3.81  0.000167  (-0.012933 -0.000000 -0.000092)
  9:   3061.76   0.000017    0.09  0.000002  ( 0.000033  0.000000  0.001322)
 10:   3136.63   0.005868   29.66  0.000584  ( 0.000058  0.024163  0.000000)
 11:   3136.71   0.005726   28.94  0.000570  ( 0.023868 -0.000059  0.000015)

--------------------------
THERMOCHEMISTRY AT 298.15K
--------------------------

Temperature         ... 298.15 K
Pressure            ... 1.00 atm
Total Mass          ... 15.03 AMU

Throughout the following assumptions are being made:
  (1) The electronic state is orbitally nondegenerate
      but the spin degeneracy is treated
  (2) There are no thermally accessible electronically excited states
  (3) Hindered rotations indicated by low frequency modes are not
      treated as such but are treated as vibrations and this may
      cause some error
  (4) All equations used are the standard statistical mechanics
      equations for an ideal gas
  (5) All vibrations are strictly harmonic

freq.    1244.29  E(vib)   ...       0.01
freq.    1405.36  E(vib)   ...       0.00
freq.    1408.25  E(vib)   ...       0.00
freq.    3061.76  E(vib)   ...       0.00
freq.    3136.63  E(vib)   ...       0.00
freq.    3136.71  E(vib)   ...       0.00

------------
INNER ENERGY
------------

The inner energy is: U= E(el) + E(ZPE) + E(vib) + E(rot) + E(trans)
    E(el)   - is the total energy from the electronic structure calculation
              = E(kin-el) + E(nuc-el) + E(el-el) + E(nuc-nuc)
    E(ZPE)  - the the zero temperature vibrational energy from the frequency calculation
    E(vib)  - the the finite temperature correction to E(ZPE) due to population
              of excited vibrational states
    E(rot)  - is the rotational thermal energy
    E(trans)- is the translational thermal energy

Summary of contributions to the inner energy U:
Electronic energy                ...    -39.81917162 Eh
Zero point energy                ...      0.03051148 Eh      19.15 kcal/mol
Thermal vibrational correction   ...      0.00002850 Eh       0.02 kcal/mol
Thermal rotational correction    ...      0.00141627 Eh       0.89 kcal/mol
Thermal translational correction ...      0.00141627 Eh       0.89 kcal/mol
-----------------------------------------------------------------------
Total thermal energy                    -39.78579910 Eh

Summary of corrections to the electronic energy:
(perhaps to be used in another calculation)
Total thermal correction                  0.00286104 Eh       1.80 kcal/mol
Non-thermal (ZPE) correction              0.03051148 Eh      19.15 kcal/mol
-----------------------------------------------------------------------
Total correction                          0.03337252 Eh      20.94 kcal/mol

--------
ENTHALPY
--------

The enthalpy is H = U + kB*T
                kB is Boltzmann's constant
Total free energy                 ...    -39.78579910 Eh
Thermal Enthalpy correction       ...      0.00094421 Eh       0.59 kcal/mol
-----------------------------------------------------------------------
Total Enthalpy                    ...    -39.78485489 Eh

Note: Rotational entropy computed according to Herzberg
Infrared and Raman Spectra, Chapter V,1, Van Nostrand Reinhold, 1945
Point Group:  C3v, Symmetry Number:   3
Rotational constants in cm-1:     8.479788     8.479278     5.592104

Vibrational entropy computed according to the QRRHO of S. Grimme
Chem.Eur.J. 2012 18 9955

-------
ENTROPY
-------

The entropy contributions are T*S = T*(S(el)+S(vib)+S(rot)+S(trans))
     S(el)   - electronic entropy
     S(vib)  - vibrational entropy
     S(rot)  - rotational entropy
     S(trans)- translational entropy
The entropies will be listed as multiplied by the temperature to get
units of energy

Electronic entropy                ...      0.00065446 Eh      0.41 kcal/mol
Vibrational entropy               ...      0.00003297 Eh      0.02 kcal/mol
Rotational entropy                ...      0.00564255 Eh      3.54 kcal/mol
Translational entropy             ...      0.01618771 Eh     10.16 kcal/mol
-----------------------------------------------------------------------
Final entropy term                ...      0.02251768 Eh     14.13 kcal/mol

In case the symmetry of your molecule has not been determined correctly
or in case you have a reason to use a different symmetry number we print
out the resulting rotational entropy values for sn=1,12 :
 --------------------------------------------------------
|  sn= 1 | S(rot)=       0.00667984 Eh      4.19 kcal/mol|
|  sn= 2 | S(rot)=       0.00602538 Eh      3.78 kcal/mol|
|  sn= 3 | S(rot)=       0.00564255 Eh      3.54 kcal/mol|
|  sn= 4 | S(rot)=       0.00537093 Eh      3.37 kcal/mol|
|  sn= 5 | S(rot)=       0.00516024 Eh      3.24 kcal/mol|
|  sn= 6 | S(rot)=       0.00498810 Eh      3.13 kcal/mol|
|  sn= 7 | S(rot)=       0.00484255 Eh      3.04 kcal/mol|
|  sn= 8 | S(rot)=       0.00471647 Eh      2.96 kcal/mol|
|  sn= 9 | S(rot)=       0.00460526 Eh      2.89 kcal/mol|
|  sn=10 | S(rot)=       0.00450578 Eh      2.83 kcal/mol|
|  sn=11 | S(rot)=       0.00441579 Eh      2.77 kcal/mol|
|  sn=12 | S(rot)=       0.00433364 Eh      2.72 kcal/mol|
 --------------------------------------------------------

-------------------
GIBBS FREE ENERGY
-------------------

The Gibbs free energy is G = H - T*S

Total enthalpy                    ...    -39.78485489 Eh
Total entropy correction          ...     -0.02251768 Eh    -14.13 kcal/mol
-----------------------------------------------------------------------
Final Gibbs free energy         ...    -39.80737258 Eh

For completeness - the Gibbs free energy minus the electronic energy
G-E(el)                           ...      0.01179905 Eh      7.40 kcal/mol

                             ****ORCA TERMINATED NORMALLY****
TOTAL RUN TIME: 0 days 0 hours 0 minutes 54 seconds 850 msec
